<?xml version="1.0"?>
<VTKFile type="UnstructuredGrid"  version="0.1"  >
<UnstructuredGrid>
<Piece  NumberOfPoints="1024" NumberOfCells="961">
<Points>
<DataArray  type="Float64"  NumberOfComponents="3"  format="ascii">0 0 0  0.03225806451612903 0 0  0.06451612903225806 0 0  0.09677419354838709 0 0  0.1290322580645161 0 0  0.1612903225806452 0 0  0.1935483870967742 0 0  0.2258064516129032 0 0  0.2580645161290323 0 0  0.2903225806451613 0 0  0.3225806451612903 0 0  0.3548387096774194 0 0  0.3870967741935484 0 0  0.4193548387096774 0 0  0.4516129032258064 0 0  0.4838709677419355 0 0  0.5161290322580645 0 0  0.5483870967741935 0 0  0.5806451612903225 0 0  0.6129032258064516 0 0  0.6451612903225806 0 0  0.6774193548387096 0 0  0.7096774193548387 0 0  0.7419354838709677 0 0  0.7741935483870968 0 0  0.8064516129032258 0 0  0.8387096774193548 0 0  0.8709677419354839 0 0  0.9032258064516129 0 0  0.9354838709677419 0 0  0.967741935483871 0 0  1 0 0  0 0.03225806451612903 0  0.03225806451612903 0.03225806451612903 0  0.06451612903225806 0.03225806451612903 0  0.09677419354838709 0.03225806451612903 0  0.1290322580645161 0.03225806451612903 0  0.1612903225806452 0.03225806451612903 0  0.1935483870967742 0.03225806451612903 0  0.2258064516129032 0.03225806451612903 0  0.2580645161290323 0.03225806451612903 0  0.2903225806451613 0.03225806451612903 0  0.3225806451612903 0.03225806451612903 0  0.3548387096774194 0.03225806451612903 0  0.3870967741935484 0.03225806451612903 0  0.4193548387096774 0.03225806451612903 0  0.4516129032258064 0.03225806451612903 0  0.4838709677419355 0.03225806451612903 0  0.5161290322580645 0.03225806451612903 0  0.5483870967741935 0.03225806451612903 0  0.5806451612903225 0.03225806451612903 0  0.6129032258064516 0.03225806451612903 0  0.6451612903225806 0.03225806451612903 0  0.6774193548387096 0.03225806451612903 0  0.7096774193548387 0.03225806451612903 0  0.7419354838709677 0.03225806451612903 0  0.7741935483870968 0.03225806451612903 0  0.8064516129032258 0.03225806451612903 0  0.8387096774193548 0.03225806451612903 0  0.8709677419354839 0.03225806451612903 0  0.9032258064516129 0.03225806451612903 0  0.9354838709677419 0.03225806451612903 0  0.967741935483871 0.03225806451612903 0  1 0.03225806451612903 0  0 0.06451612903225806 0  0.03225806451612903 0.06451612903225806 0  0.06451612903225806 0.06451612903225806 0  0.09677419354838709 0.06451612903225806 0  0.1290322580645161 0.06451612903225806 0  0.1612903225806452 0.06451612903225806 0  0.1935483870967742 0.06451612903225806 0  0.2258064516129032 0.06451612903225806 0  0.2580645161290323 0.06451612903225806 0  0.2903225806451613 0.06451612903225806 0  0.3225806451612903 0.06451612903225806 0  0.3548387096774194 0.06451612903225806 0  0.3870967741935484 0.06451612903225806 0  0.4193548387096774 0.06451612903225806 0  0.4516129032258064 0.06451612903225806 0  0.4838709677419355 0.06451612903225806 0  0.5161290322580645 0.06451612903225806 0  0.5483870967741935 0.06451612903225806 0  0.5806451612903225 0.06451612903225806 0  0.6129032258064516 0.06451612903225806 0  0.6451612903225806 0.06451612903225806 0  0.6774193548387096 0.06451612903225806 0  0.7096774193548387 0.06451612903225806 0  0.7419354838709677 0.06451612903225806 0  0.7741935483870968 0.06451612903225806 0  0.8064516129032258 0.06451612903225806 0  0.8387096774193548 0.06451612903225806 0  0.8709677419354839 0.06451612903225806 0  0.9032258064516129 0.06451612903225806 0  0.9354838709677419 0.06451612903225806 0  0.967741935483871 0.06451612903225806 0  1 0.06451612903225806 0  0 0.09677419354838709 0  0.03225806451612903 0.09677419354838709 0  0.06451612903225806 0.09677419354838709 0  0.09677419354838709 0.09677419354838709 0  0.1290322580645161 0.09677419354838709 0  0.1612903225806452 0.09677419354838709 0  0.1935483870967742 0.09677419354838709 0  0.2258064516129032 0.09677419354838709 0  0.2580645161290323 0.09677419354838709 0  0.2903225806451613 0.09677419354838709 0  0.3225806451612903 0.09677419354838709 0  0.3548387096774194 0.09677419354838709 0  0.3870967741935484 0.09677419354838709 0  0.4193548387096774 0.09677419354838709 0  0.4516129032258064 0.09677419354838709 0  0.4838709677419355 0.09677419354838709 0  0.5161290322580645 0.09677419354838709 0  0.5483870967741935 0.09677419354838709 0  0.5806451612903225 0.09677419354838709 0  0.6129032258064516 0.09677419354838709 0  0.6451612903225806 0.09677419354838709 0  0.6774193548387096 0.09677419354838709 0  0.7096774193548387 0.09677419354838709 0  0.7419354838709677 0.09677419354838709 0  0.7741935483870968 0.09677419354838709 0  0.8064516129032258 0.09677419354838709 0  0.8387096774193548 0.09677419354838709 0  0.8709677419354839 0.09677419354838709 0  0.9032258064516129 0.09677419354838709 0  0.9354838709677419 0.09677419354838709 0  0.967741935483871 0.09677419354838709 0  1 0.09677419354838709 0  0 0.1290322580645161 0  0.03225806451612903 0.1290322580645161 0  0.06451612903225806 0.1290322580645161 0  0.09677419354838709 0.1290322580645161 0  0.1290322580645161 0.1290322580645161 0  0.1612903225806452 0.1290322580645161 0  0.1935483870967742 0.1290322580645161 0  0.2258064516129032 0.1290322580645161 0  0.2580645161290323 0.1290322580645161 0  0.2903225806451613 0.1290322580645161 0  0.3225806451612903 0.1290322580645161 0  0.3548387096774194 0.1290322580645161 0  0.3870967741935484 0.1290322580645161 0  0.4193548387096774 0.1290322580645161 0  0.4516129032258064 0.1290322580645161 0  0.4838709677419355 0.1290322580645161 0  0.5161290322580645 0.1290322580645161 0  0.5483870967741935 0.1290322580645161 0  0.5806451612903225 0.1290322580645161 0  0.6129032258064516 0.1290322580645161 0  0.6451612903225806 0.1290322580645161 0  0.6774193548387096 0.1290322580645161 0  0.7096774193548387 0.1290322580645161 0  0.7419354838709677 0.1290322580645161 0  0.7741935483870968 0.1290322580645161 0  0.8064516129032258 0.1290322580645161 0  0.8387096774193548 0.1290322580645161 0  0.8709677419354839 0.1290322580645161 0  0.9032258064516129 0.1290322580645161 0  0.9354838709677419 0.1290322580645161 0  0.967741935483871 0.1290322580645161 0  1 0.1290322580645161 0  0 0.1612903225806452 0  0.03225806451612903 0.1612903225806452 0  0.06451612903225806 0.1612903225806452 0  0.09677419354838709 0.1612903225806452 0  0.1290322580645161 0.1612903225806452 0  0.1612903225806452 0.1612903225806452 0  0.1935483870967742 0.1612903225806452 0  0.2258064516129032 0.1612903225806452 0  0.2580645161290323 0.1612903225806452 0  0.2903225806451613 0.1612903225806452 0  0.3225806451612903 0.1612903225806452 0  0.3548387096774194 0.1612903225806452 0  0.3870967741935484 0.1612903225806452 0  0.4193548387096774 0.1612903225806452 0  0.4516129032258064 0.1612903225806452 0  0.4838709677419355 0.1612903225806452 0  0.5161290322580645 0.1612903225806452 0  0.5483870967741935 0.1612903225806452 0  0.5806451612903225 0.1612903225806452 0  0.6129032258064516 0.1612903225806452 0  0.6451612903225806 0.1612903225806452 0  0.6774193548387096 0.1612903225806452 0  0.7096774193548387 0.1612903225806452 0  0.7419354838709677 0.1612903225806452 0  0.7741935483870968 0.1612903225806452 0  0.8064516129032258 0.1612903225806452 0  0.8387096774193548 0.1612903225806452 0  0.8709677419354839 0.1612903225806452 0  0.9032258064516129 0.1612903225806452 0  0.9354838709677419 0.1612903225806452 0  0.967741935483871 0.1612903225806452 0  1 0.1612903225806452 0  0 0.1935483870967742 0  0.03225806451612903 0.1935483870967742 0  0.06451612903225806 0.1935483870967742 0  0.09677419354838709 0.1935483870967742 0  0.1290322580645161 0.1935483870967742 0  0.1612903225806452 0.1935483870967742 0  0.1935483870967742 0.1935483870967742 0  0.2258064516129032 0.1935483870967742 0  0.2580645161290323 0.1935483870967742 0  0.2903225806451613 0.1935483870967742 0  0.3225806451612903 0.1935483870967742 0  0.3548387096774194 0.1935483870967742 0  0.3870967741935484 0.1935483870967742 0  0.4193548387096774 0.1935483870967742 0  0.4516129032258064 0.1935483870967742 0  0.4838709677419355 0.1935483870967742 0  0.5161290322580645 0.1935483870967742 0  0.5483870967741935 0.1935483870967742 0  0.5806451612903225 0.1935483870967742 0  0.6129032258064516 0.1935483870967742 0  0.6451612903225806 0.1935483870967742 0  0.6774193548387096 0.1935483870967742 0  0.7096774193548387 0.1935483870967742 0  0.7419354838709677 0.1935483870967742 0  0.7741935483870968 0.1935483870967742 0  0.8064516129032258 0.1935483870967742 0  0.8387096774193548 0.1935483870967742 0  0.8709677419354839 0.1935483870967742 0  0.9032258064516129 0.1935483870967742 0  0.9354838709677419 0.1935483870967742 0  0.967741935483871 0.1935483870967742 0  1 0.1935483870967742 0  0 0.2258064516129032 0  0.03225806451612903 0.2258064516129032 0  0.06451612903225806 0.2258064516129032 0  0.09677419354838709 0.2258064516129032 0  0.1290322580645161 0.2258064516129032 0  0.1612903225806452 0.2258064516129032 0  0.1935483870967742 0.2258064516129032 0  0.2258064516129032 0.2258064516129032 0  0.2580645161290323 0.2258064516129032 0  0.2903225806451613 0.2258064516129032 0  0.3225806451612903 0.2258064516129032 0  0.3548387096774194 0.2258064516129032 0  0.3870967741935484 0.2258064516129032 0  0.4193548387096774 0.2258064516129032 0  0.4516129032258064 0.2258064516129032 0  0.4838709677419355 0.2258064516129032 0  0.5161290322580645 0.2258064516129032 0  0.5483870967741935 0.2258064516129032 0  0.5806451612903225 0.2258064516129032 0  0.6129032258064516 0.2258064516129032 0  0.6451612903225806 0.2258064516129032 0  0.6774193548387096 0.2258064516129032 0  0.7096774193548387 0.2258064516129032 0  0.7419354838709677 0.2258064516129032 0  0.7741935483870968 0.2258064516129032 0  0.8064516129032258 0.2258064516129032 0  0.8387096774193548 0.2258064516129032 0  0.8709677419354839 0.2258064516129032 0  0.9032258064516129 0.2258064516129032 0  0.9354838709677419 0.2258064516129032 0  0.967741935483871 0.2258064516129032 0  1 0.225806451
[...]
<CellData  Scalars="f_44"> 
<DataArray  type="Float64"  Name="f_44"  format="ascii">4.9750531746385684e+00   4.4468130936268730e+00   8.6024303802784789e+00   2.5147177945465149e+00   7.3984948008151301e+00   7.0671186721315671e+00   8.6196059981996758e+00   7.9841968990076673e+00   8.7302862212322978e+00   9.3988428970252347e+00   1.0000000000000000e+01   1.0000000000000000e+01   1.0000000000000000e+01   1.0000000000000000e+01   1.0000000000000000e+01   1.0000000000000000e+01   1.0000000000000000e+01   1.0000000000000000e+01   9.7355675966558071e+00   8.9386991375186842e+00   8.3020215200539145e+00   7.4887436880668607e+00   6.7495915120233470e+00   5.8198634883700180e+00   5.0205725912266104e+00   4.1749928290041529e+00   1.8728460268754363e+00   2.0584802430943836e+00   1.0000000000000276e-02   1.0000000000000000e-02   1.4124886910421036e-01   1.0000000000000040e-02   1.0000000000000068e-02   1.0000000000000248e-02   1.0000000000000023e-02   2.4123754605872945e+00   1.0000000000000000e-02   2.2358061746850075e+00   1.0000000000000130e-02   1.0000000000000122e-02   1.0000000000000162e-02   1.0000000000000099e-02   1.0000000000000000e-02   7.0327169442066373e-01   1.0000000000000259e-02   1.0000000000000330e-02   7.5650561659489202e-01   1.0000000000000692e-02   1.0000000000000047e-02   7.3299476123624585e-01   1.0000000000000000e-02   1.0000000000000455e-02   1.0000000000000182e-02   1.0000000000000274e-02   1.0000000000000021e-02   1.0000000000000342e-02   1.0000000000000000e-02   1.1417061723327546e+00   1.0000000000000000e-02   1.5107611713131608e+00   1.0000000000000000e-02   4.1182553518587939e-01   1.0000000000000033e-02   2.1591514792074089e+00   2.5714772390275575e+00   2.2516954101916373e+00   1.9824973772055077e+00   1.8597756609561047e+00   1.5024903654411212e+00   1.2299184192677841e+00   7.1577231035952571e-01   6.2269045986437244e-01   1.0000000000000059e-02   1.0000000000000217e-02   1.0000000000000000e-02   1.0000000000000000e-02   1.0000000000000000e-02   1.0000000000000179e-02   1.0000000000000288e-02   1.0000000000000129e-02   1.0000000000000137e-02   1.0000000000000000e-02   2.6137027352023084e-01   2.9556284962283019e-01   3.0786070928489712e-01   3.2613029532347609e-01   3.7662537382310779e-01   5.9598969820135783e-01   5.6864843953400857e-01   7.1507575963460079e-01   1.0000000000000418e-02   5.6232878027909139e-01   5.1901901368490877e-01   1.0000000000002045e-02   4.8491885966004746e+00   3.4776812037641509e+00   2.7477197501261137e+00   2.2601690018765215e+00   1.8730967820180202e+00   1.5490625810452676e+00   1.1820877339581464e+00   8.7603088623015002e-01   6.2314973758935055e-01   1.0000000000000130e-02   3.0046663082469321e-01   3.9803659583691714e-01   4.4516766845998201e-01   4.3800936915559241e-01   4.3395191975624808e-01   4.2481387108679625e-01   4.1281567649761902e-01   4.0053015885845261e-01   3.9985879555724319e-01   4.1424470657263279e-01   4.2547342538200922e-01   4.3067511065361586e-01   4.4509005138294339e-01   4.9049584040721017e-01   5.2396887436528483e-01   5.6325962771103877e-01   4.9812716725290190e-01   4.4259549796526143e-01   3.8639717962108516e-01   4.2815551220352888e-01   1.0000000000000000e+01   5.1633017409355126e+00   3.7303547706405160e+00   2.8893850292114736e+00   2.3039117406559417e+00   1.8637968971974725e+00   1.4566382474818793e+00   1.1755720542977524e+00   1.0664483517127938e+00   1.0000000000000347e-02   1.0000000000000000e-02   6.9820098255838747e-01   6.1657178311930305e-01   6.2397664709566014e-01   6.2787345614522994e-01   6.1842663138547860e-01   6.0131301787289448e-01   5.8263411091280648e-01   5.6264771232875754e-01   5.4752333274226350e-01   5.3769713981862854e-01   5.2655325034756639e-01   5.2047642237736103e-01   5.1995445581432653e-01   5.2457761111753065e-01   5.2849196516681474e-01   5.1522282763135530e-01   4.7899034945180796e-01   4.2475204577790537e-01   3.2746026464836420e-01   2.5682445766008954e-01   1.0000000000000000e-02   4.3127744329228532e+00   3.3118367911973707e+00   2.6536959684066241e+00   2.1461104857406648e+00   1.7016640831626444e+00   1.3476972483762553e+00   1.4990551959730540e+00   1.0000000000000345e-02   1.0000000000000129e-02   7.1809928812334722e-01   7.3281793621203617e-01   7.6452988353835405e-01   7.9141124911191019e-01   7.8170777755130227e-01   7.6362768137242876e-01   7.3986283076068959e-01   7.1260960597650325e-01   6.8501232109762800e-01   6.5886827492679068e-01   6.3444138939443362e-01   6.1228584445680834e-01   5.9212770012397409e-01   5.7498732197536662e-01   5.5858034032447434e-01   5.3920189671554453e-01   5.0995394351769374e-01   4.6880750136740362e-01   4.0531753580947516e-01   3.2423846573647969e-01   4.9657449002897619e-01   3.2707077129143718e+00   1.6699277974318401e+00   2.5286184014042732e+00   2.1903585970308597e+00   1.7663077332674730e+00   1.4404355900343631e+00   9.7697297628844737e-01   1.0000000000000217e-02   1.0000000000000585e-02   7.2730820712505606e-01   8.6555962615223536e-01   9.0749896379390793e-01   9.4438599499420572e-01   9.3522765519317230e-01   9.1908647510731090e-01   8.9069548892614836e-01   8.5739736932236543e-01   8.2189150704715153e-01   7.8574742414448262e-01   7.5029208479338216e-01   7.1620237715948343e-01   6.8363226989744685e-01   6.5263349548182603e-01   6.2255096446837588e-01   5.9202428541962737e-01   5.5814055934135820e-01   5.1930100138627644e-01   4.7012616851373157e-01   4.0105843713168499e-01   3.5773010078585266e-01   1.0000000000000000e-02   1.0000000000000000e-02   1.0000000000000000e-02   1.4130946822538539e+00   1.5475960295202791e+00   1.2506128626722239e+00   7.0831284546841466e-01   1.0000000000000000e-02   7.6472824215879032e-01   9.8222639744183859e-01   1.0387250813474571e+00   1.0850816776052374e+00   1.1139911365284070e+00   1.0983583332957583e+00   1.0792758956306410e+00   1.0446966046195456e+00   1.0052010537897804e+00   9.6198166420836018e-01   9.1743293697715933e-01   8.7285462258954938e-01   8.2906596175737712e-01   7.8650006895204194e-01   7.4526118352059167e-01   7.0508285331368170e-01   6.6528148657510588e-01   6.2453457218001207e-01   5.8122911025700053e-01   5.3175274479780577e-01   4.7867485826831752e-01   4.6952139995207226e-01   1.0000000000000000e-02   3.0846279608399363e-01   1.0000000000000581e-02   1.0000000000000181e-02   1.0000000000000136e-02   1.0000000000000042e-02   1.0000000000000113e-02   1.0659029773762205e+00   1.1773723295650422e+00   1.2384252423043769e+00   1.3190044808501107e+00   1.3149507497016337e+00   1.3184965352832227e+00   1.2886725466461917e+00   1.2557201740694366e+00   1.2103419563585502e+00   1.1615079028139257e+00   1.1090032232812435e+00   1.0554514345946029e+00   1.0019048219277056e+00   9.4919518190281227e-01   8.9777111597110248e-01   8.4778373301319632e-01   7.9911584196234153e-01   7.5138350249176600e-01   7.0386381573728451e-01   6.5544058975120345e-01   6.0437510991806298e-01   5.5008838852887287e-01   4.8575215994906301e-01   3.3992338067626543e-01   8.7528996546670801e-01   1.0000000000000000e-02   1.0000000000000122e-02   7.1791714284962627e-01   1.0691072871015592e+00   1.3314500834338729e+00   1.6287844172151291e+00   1.5886485671171091e+00   1.6367614515822093e+00   1.6447244124367288e+00   1.6132377169697851e+00   1.5777038656578179e+00   1.5186560548646246e+00   1.4617298473016276e+00   1.3976968783453607e+00   1.3331914795208881e+00   1.2676141575796720e+00   1.2025268595351275e+00   1.1385219794489936e+00   1.0761849356416833e+00   1.0157700409821324e+00   9.5735281366786285e-01   9.0081888721824355e-01   8.4584486052638597e-01   7.9191035074808080e-01   7.3826818056512911e-01   6.8384075149601420e-01   6.2739763187202668e-01   5.6555910966481970e-01   4.9657239556468791e-01   4.2468929178199061e-01   3.4657314729789529e-01   6.7197266906118047e-01   1.0000000000000137e-02   9.3500176813423530e-01   1.5082011666458532e+00   1.8956625484664273e+00   2.0785473898647591e+00   2.0702392272618306e+00   2.0473157546944099e+00   1.9742500115212487e+00   1.8889558496262100e+00   1.7974905070012823e+00   1.7064538755572047e+00   1.6154603045037617e+00   1.5277604508534388e+00   1.4430844409360095e+00   1.3622604630535708e+00   1.2849511812947538e+00   1.2110357439959540e+00   1.1404173971162268e+00   1.0729078813845359e+00   1.0082096777263105e+00   9.4595028627523048e-01   8.8563287602715401e-01   8.2661670651028663e-01   7.6812242607772474e-01   7.0913294688341266e-01   6.4807403248414897e-01   5.8407479620237335e-01   5.1270422151310635e-01   4.4265337383585995e-01   3.5820596615710587e-01   1.0000000000000077e-02   1.0000000000000000e-02   1.0000000000000035e-02   1.9748438398565908e+00   2.4906376575417366e+00   2.6059530284605206e+00   2.5386059731522352e+00   2.4068538908809058e+00   2.2713413153771493e+00   2.1290464294674409e+00   1.9927940557959722e+00   1.8659449499639431e+00   1.7489898989667816e+00   1.6400532761467816e+00   1.5382782817484739e+00   1.4434581614906101e+00   1.3550691142959737e+00   1.2722365242160658e+00   1.1942398303650155e+00   1.1204767585869380e+00   1.0503429662704982e+00   9.8322747201060356e-01   9.1848003703028713e-01   8.5536405787296099e-01   7.9306405805298030e-01   7.3063104408283719e-01   6.6694278312859390e-01   5.9970786077667182e-01   5.2835395621915593e-01   4.4320109411426778e-01   3.4119819375040894e-01   8.0625219374747437e-01   5.2188371082369915e+00   1.0000000000000226e-02   3.1384693533763874e+00   3.2762493433818083e+00   3.1466691921131105e+00   2.9520885519966975e+00   2.7313461524242166e+00   2.5208214833486924e+00   2.3298633094739927e+00   2.1557394047020484e+00   1.9985024111153369e+00   1.8578735995087141e+00   1.7312019985872622e+00   1.6154850877457188e+00   1.5092344253060985e+00   1.4115277417121139e+00   1.3211848434354332e+00   1.2370358929383172e+00   1.1581091502194438e+00   1.0835385326437821e+00   1.0125164024205040e+00   9.4426194435803990e-01   8.7796008784331947e-01   8.1276249743655804e-01   7.4777008024535585e-01   6.8191163108054720e-01   6.1475065033999532e-01   5.4106089374568367e-01   4.4447450662217436e-01   3.3098658331639935e-01   2.8275746405756952e-01   1.0000000000000000e-02   3.5024537610417332e+00   4.3969784698886194e+00   4.0435259449864978e+00   3.6718008854551543e+00   3.3043311941836762e+00   2.9897691923675453e+00   2.7171198283516462e+00   2.4823859337670626e+00   2.2781572358917574e+00   2.0980601280294442e+00   1.9392863414726160e+00   1.7987192329515989e+00   1.6723804753408920e+00   1.5576286190955049e+00   1.4529586071530805e+00   1.3569471895150438e+00   1.2681626434422344e+00   1.1853718519355827e+00   1.1075085604016788e+00   1.0336155220869545e+00   9.6281072696065995e-01   8.9422070819992550e-01   8.2696981077898768e-01   7.6019347326913533e-01   6.9289216669758169e-01   6.2413272876600778e-01   5.5887112803739369e-01   5.0109823897543881e-01   1.0000000000000000e-02   4.8825245382313659e-01   1.0000000000000000e-02   7.5226340918834715e+00   5.5810275974887924e+00   4.7012920318904650e+00   4.0358516540048299e+00   3.5493611043710755e+00   3.1601605308885770e+00   2.8430959608428958e+00   2.5788763693393637e+00   2.3544128238807271e+00   2.1597443772065130e+00   1.9896678197147253e+00   1.8403233175942366e+00   1.7072807963415189e+00   1.5872374667705584e+00   1.4782613984121715e+00   1.3787337201983565e+00   1.2870688591041011e+00   1.2018835486087109e+00   1.1219888763042136e+00   1.0463337455525663e+00   9.7397120548044880e-01   9.0398623757946839e-01   8.3546261613318340e-01   7.6746962304735089e-01   6.9899324946052255e-01   6.2860866117229186e-01   5.5280575818355959e-01   5.1523564511922681e-01   1.2095134881827332e+00   1.0000000000000935e-02   1.0000000000000000e+01   8.1184443644472921e+00   6.1657617714723782e+00   4.9368663779416844e+00   4.1822418121130189e+00   3.6342807812392879e+00   3.2199426399557716e+00   2.8865977663032067e+00   2.6118998984274984e+00   2.3803461581444343e+00   2.1806349248523977e+00   2.0067053064699247e+00   1.8543695116413019e+00   1.7190323250716155e+00   1.5971883533290581e+00   1.4867524777548289e+00   1.3860318796922291e+00   1.2933880768488686e+00   1.2073872190276138e+00   1.1267991070939398e+00   1.0505408970574859e+00   9.7764257970442403e-01   9.0717297313572498e-01   8.3819963832765099e-01   7.6977869055355308e-01   7.0058771418048971e-01   6.2930621410723053e-01   5.5374858538237648e-01   3.9975667766653122e-01   6.0382084192537289e-01   1.0000000000000000e-02   1.0000000000000000e-02   7.5073899275575311e+00   5.5770948681804393e+00   4.6994475347321094e+00   4.0344460108526539e+00   3.5483972534527775e+00   3.1596285292241237e+00   2.8428120078984711e+00   2.5787321212365724e+00   2.3543350994900387e+00   2.1596946867502744e+00   1.9896226373058274e+00   1.8402726131866021e+00   1.7072248806928512e+00   1.5871781185111395e+00   1.4781994474535229e+00   1.3786673635467446e+00   1.2869937037522592e+00   1.2017934865933126e+00   1.1218768551302929e+00   1.0461921454017893e+00   9.7379069593264489e-01   9.0375116979863190e-01   8.3514637396184010e-01   7.6699040040706379e-01   6.9816575286833671e-01   6.2601719968860370e-01   5.4659844158944093e-01   4.7356773726261570e-01   3.6003894777447604e-01   3.0578158397354827e-01   1.0000000000000000e-02   3.4860109349540958e+00   4.3940499586764048e+00   4.0398012487280530e+00   3.6692599772074161e+00   3.3029726121126823e+00   2.9889985542774027e+00   2.7167168235885768e+00   2.4821566749623600e+00   2.2780229240197132e+00   2.0979608101378333e+00   1.9391859536414591e+00   1.7986108668426297e+00   1.6722660379609966e+00   1.5575115790976783e+00   1.4528382920586436e+00   1.3568181620463280e+00   1.2680157948407544e+00   1.1851952383558062e+00   1.1072889593814068e+00   1.0333386005915552e+00   9.6245784767807474e-01   8.9376084788955690e-01   8.2633388319776524e-01   7.5927264290698149e-01   6.9123401694980913e-01   6.2151424718860215e-01   5.4665976609015221e-01   4.6913030023153474e-01   3.6622677597532838e-01   2.6345550076675472e-01   5.2292734502557900e+00   1.0000000000000489e-02   3.1270929950883950e+00   3.2724234888317443e+00   3.1449221100121512e+00   2.9509889686588844e+00   2.7307280674467651e+00   2.5204328675247947e+00   2.3296152128381906e+00   2.1555539868144611e+00   1.9983341491463145e+00   1.8576973629979654e+00   1.7310242130799491e+00   1.6153131079434959e+00   1.5090663327871452e+00   1.4113565517399753e+00   1.3210003384568523e+00   1.2368237511788900e+00   1.1578529596319553e+00   1.0832204941780357e+00   1.0121172492759698e+00   9.4375681043010373e-01   8.7730765369652686e-01   8.1189749852756998e-01   7.4652948299673272e-01   6.8043430838093799e-01   6.1227574245172667e-01   5.4445971465998688e-01   4.6153872296997034e-01   3.5523445706376677e-01   3.8733581937228134e-01   1.0000000000000000e-02   1.0000000000000097e-02   1.9754677914785161e+00   2.4892269286755462e+00   2.6051548612946553e+00   2.5377186423495250e+00   2.4065676585612312e+00   2.2709624249201510e+00   2.1287417595944209e+00   1.9925161308081145e+00   1.8656482371476120e+00   1.7487083433151858e+00   1.6398091589394326e+00   1.5380622502304460e+00   1.4432522013818458e+00   1.3548584587275971e+00   1.2720052367245402e+00   1.1939713279585573e+00   1.1201515276330092e+00   1.0499406630932189e+00   9.8272559545272675e-01   9.1784850336724400e-01   8.5455712946385487e-01   7.9200332082555513e-01   7.2926108393465272e-01   6.6465718592464385e-01   5.9792741035450458e-01   5.3070130736244725e-01   4.7734459721692241e-01   3.9199692179594137e-01   1.0000000000000000e-02   1.0000000000000085e-02   9.3385088061575905e-01   1.5071265365819189e+00   1.8948752146273706e+00   2.0774658941866511e+00   2.0700376040571640e+00   2.0466523978777991e+00   1.9737347634449489e+00   1.8884727181540346e+00   1.7969410896120681e+00   1.7059882532965358e+00   1.6150881682513085e+00   1.5274828108742251e+00   1.4428524028201468e+00   1.3620331264578818e+00   1.2847100348148273e+00   1.2107676125297533e+00   1.1401033642079512e+00   1.0725278146010644e+00   1.0077416318910657e+00   9.4536928289542066e-01   8.8490590427724847e-01   8.2569620407944944e-01   7.6694228930614572e-01   7.0752640656925436e-01   6.4636418845123644e-01   5.7964305995876186e-01   4.9849468216043186e-01   4.7429765460237466e-01   5.2771689222190266e-01   1.0000000000000044e-02   1.0000000000000848e-02   7.1703469617508531e-01   1.0680408382526305e+00   1.3303175569096253e+00   1.6238730533993817e+00   1.5871801493918034e+00   1.6354725697758059e+00   1.6438103386476297e+00   1.6122833441007016e+00   1.5770137699448890e+00   1.5180620770889670e+00   1.4613108247771112e+00   1.3974658090724699e+00   1.3329557864703019e+00   1.2673699070917952e+00   1.2022641042315907e+00   1.1382268044798094e+00   1.0758398887681453e+00   1.0153530299415652e+00   9.5683998508950474e-01   9.0018319389956225e-01   8.4505186230387219e-01   7.9091575304082662e-01   7.3700943757576154e-01   6.8228105210356471e-01   6.2486462097271367e-01   5.6341218347746058e-01   4.9239980189786980e-01   1.0000000000000618e-02   1.3583769486641630e+00   3.8702729031568545e-01   1.0000000000000142e-02   1.0000000000000266e-02   1.0000000000000129e-02   1.0000000000000000e-02   1.0000000000000170e-02   1.0585305927657405e+00   1.1745185547256778e+00   1.2376642709653110e+00   1.3179185683793255e+00   1.3141076026006819e+00   1.3176453848646561e+00   1.2885499180021247e+00   1.2554345712736017e+00   1.2101097055144852e+00   1.1612474785287705e+00   1.1087264500375795e+00   1.0551463014375257e+00   1.0015473815292182e+00   9.4875996200984647e-01   8.9723308705810412e-01   8.4711362522070088e-01   7.9828122016011338e-01   7.5034850372140049e-01   7.0259228986918010e-01   6.5384137860690550e-01   6.0266128884469261e-01   5.4588875647946555e-01   4.7627149743038566e-01   5.1143902316153689e-01   1.0000000000000099e-02   1.0000000000000000e-02   1.0000000000000234e-02   1.0000000000000000e-02   1.4097676259919680e+00   1.5492657107390426e+00   1.2529808194922720e+00   7.1338753142547140e-01   1.0000000000000000e-02   7.6091009852088543e-01   9.7878706708810126e-01   1.0374584659598465e+00   1.0849257931562941e+00   1.1134474385753841e+00   1.0982067416887651e+00   1.0790025712222948e+00   1.0444271241916545e+00   1.0049387413930500e+00   9.6168553885570396e-01   9.1707653039134096e-01   8.7241575901434543e-01   8.2851701223259699e-01   7.8581357221371340e-01   7.4440283759983916e-01   7.0402121267803219e-01   6.6397434729319693e-01   6.2295324741318125e-01   5.7905901902670220e-01   5.3057014246204059e-01   4.8354924965798235e-01   4.0696389537682859e-01   2.7955163609237599e-01   3.3694046938995093e-01   3.3053916854734688e+00   1.6533150115700816e+00   2.5394599018068091e+00   2.1948597858303773e+00   1.7673549955081040e+00   1.4417226702775074e+00   9.7886419129753877e-01   1.0000000000000365e-02   1.0000000000000278e-02   7.1567032818372567e-01   8.6325593706350201e-01   9.0715419320707447e-01   9.4415886440424157e-01   9.3491536663485952e-01   9.1888525640166352e-01   8.9044849429133732e-01   8.5710078809742896e-01   8.2154066050160102e-01   7.8531459886392896e-01   7.4975299752260860e-01   7.1551709351983983e-01   6.8276844910014056e-01   6.5154619104282852e-01   6.2121712893564618e-01   5.9041359088787371e-01   5.5653353869397315e-01   5.1709718414908734e-01   4.6563817922259493e-01   3.9403513189427525e-01   4.0425092057390394e-01   1.0000000000000000e-02   1.0000000000000000e-02   4.3383879519367179e+00   3.3244016375777363e+00   2.6568776965554908e+00   2.1486015332059543e+00   1.7027793661614239e+00   1.3480296780487675e+00   1.4995248368215774e+00   1.0000000000000243e-02   1.0000000000000167e-02   7.1641064948853672e-01   7.3425328365220532e-01   7.6326745309181399e-01   7.9123705447069148e-01   7.8147546587175543e-01   7.6336483461099125e-01   7.3958417572687007e-01   7.1226611316186406e-01   6.8463871446349112e-01   6.5834893502619096e-01   6.3381491069285101e-01   6.11414256895482