<?xml version="1.0"?>
<VTKFile type="UnstructuredGrid"  version="0.1"  >
<UnstructuredGrid>
<Piece  NumberOfPoints="1024" NumberOfCells="961">
<Points>
<DataArray  type="Float64"  NumberOfComponents="3"  format="ascii">0 0 0  0.03225806451612903 0 0  0.06451612903225806 0 0  0.09677419354838709 0 0  0.1290322580645161 0 0  0.1612903225806452 0 0  0.1935483870967742 0 0  0.2258064516129032 0 0  0.2580645161290323 0 0  0.2903225806451613 0 0  0.3225806451612903 0 0  0.3548387096774194 0 0  0.3870967741935484 0 0  0.4193548387096774 0 0  0.4516129032258064 0 0  0.4838709677419355 0 0  0.5161290322580645 0 0  0.5483870967741935 0 0  0.5806451612903225 0 0  0.6129032258064516 0 0  0.6451612903225806 0 0  0.6774193548387096 0 0  0.7096774193548387 0 0  0.7419354838709677 0 0  0.7741935483870968 0 0  0.8064516129032258 0 0  0.8387096774193548 0 0  0.8709677419354839 0 0  0.9032258064516129 0 0  0.9354838709677419 0 0  0.967741935483871 0 0  1 0 0  0 0.03225806451612903 0  0.03225806451612903 0.03225806451612903 0  0.06451612903225806 0.03225806451612903 0  0.09677419354838709 0.03225806451612903 0  0.1290322580645161 0.03225806451612903 0  0.1612903225806452 0.03225806451612903 0  0.1935483870967742 0.03225806451612903 0  0.2258064516129032 0.03225806451612903 0  0.2580645161290323 0.03225806451612903 0  0.2903225806451613 0.03225806451612903 0  0.3225806451612903 0.03225806451612903 0  0.3548387096774194 0.03225806451612903 0  0.3870967741935484 0.03225806451612903 0  0.4193548387096774 0.03225806451612903 0  0.4516129032258064 0.03225806451612903 0  0.4838709677419355 0.03225806451612903 0  0.5161290322580645 0.03225806451612903 0  0.5483870967741935 0.03225806451612903 0  0.5806451612903225 0.03225806451612903 0  0.6129032258064516 0.03225806451612903 0  0.6451612903225806 0.03225806451612903 0  0.6774193548387096 0.03225806451612903 0  0.7096774193548387 0.03225806451612903 0  0.7419354838709677 0.03225806451612903 0  0.7741935483870968 0.03225806451612903 0  0.8064516129032258 0.03225806451612903 0  0.8387096774193548 0.03225806451612903 0  0.8709677419354839 0.03225806451612903 0  0.9032258064516129 0.03225806451612903 0  0.9354838709677419 0.03225806451612903 0  0.967741935483871 0.03225806451612903 0  1 0.03225806451612903 0  0 0.06451612903225806 0  0.03225806451612903 0.06451612903225806 0  0.06451612903225806 0.06451612903225806 0  0.09677419354838709 0.06451612903225806 0  0.1290322580645161 0.06451612903225806 0  0.1612903225806452 0.06451612903225806 0  0.1935483870967742 0.06451612903225806 0  0.2258064516129032 0.06451612903225806 0  0.2580645161290323 0.06451612903225806 0  0.2903225806451613 0.06451612903225806 0  0.3225806451612903 0.06451612903225806 0  0.3548387096774194 0.06451612903225806 0  0.3870967741935484 0.06451612903225806 0  0.4193548387096774 0.06451612903225806 0  0.4516129032258064 0.06451612903225806 0  0.4838709677419355 0.06451612903225806 0  0.5161290322580645 0.06451612903225806 0  0.5483870967741935 0.06451612903225806 0  0.5806451612903225 0.06451612903225806 0  0.6129032258064516 0.06451612903225806 0  0.6451612903225806 0.06451612903225806 0  0.6774193548387096 0.06451612903225806 0  0.7096774193548387 0.06451612903225806 0  0.7419354838709677 0.06451612903225806 0  0.7741935483870968 0.06451612903225806 0  0.8064516129032258 0.06451612903225806 0  0.8387096774193548 0.06451612903225806 0  0.8709677419354839 0.06451612903225806 0  0.9032258064516129 0.06451612903225806 0  0.9354838709677419 0.06451612903225806 0  0.967741935483871 0.06451612903225806 0  1 0.06451612903225806 0  0 0.09677419354838709 0  0.03225806451612903 0.09677419354838709 0  0.06451612903225806 0.09677419354838709 0  0.09677419354838709 0.09677419354838709 0  0.1290322580645161 0.09677419354838709 0  0.1612903225806452 0.09677419354838709 0  0.1935483870967742 0.09677419354838709 0  0.2258064516129032 0.09677419354838709 0  0.2580645161290323 0.09677419354838709 0  0.2903225806451613 0.09677419354838709 0  0.3225806451612903 0.09677419354838709 0  0.3548387096774194 0.09677419354838709 0  0.3870967741935484 0.09677419354838709 0  0.4193548387096774 0.09677419354838709 0  0.4516129032258064 0.09677419354838709 0  0.4838709677419355 0.09677419354838709 0  0.5161290322580645 0.09677419354838709 0  0.5483870967741935 0.09677419354838709 0  0.5806451612903225 0.09677419354838709 0  0.6129032258064516 0.09677419354838709 0  0.6451612903225806 0.09677419354838709 0  0.6774193548387096 0.09677419354838709 0  0.7096774193548387 0.09677419354838709 0  0.7419354838709677 0.09677419354838709 0  0.7741935483870968 0.09677419354838709 0  0.8064516129032258 0.09677419354838709 0  0.8387096774193548 0.09677419354838709 0  0.8709677419354839 0.09677419354838709 0  0.9032258064516129 0.09677419354838709 0  0.9354838709677419 0.09677419354838709 0  0.967741935483871 0.09677419354838709 0  1 0.09677419354838709 0  0 0.1290322580645161 0  0.03225806451612903 0.1290322580645161 0  0.06451612903225806 0.1290322580645161 0  0.09677419354838709 0.1290322580645161 0  0.1290322580645161 0.1290322580645161 0  0.1612903225806452 0.1290322580645161 0  0.1935483870967742 0.1290322580645161 0  0.2258064516129032 0.1290322580645161 0  0.2580645161290323 0.1290322580645161 0  0.2903225806451613 0.1290322580645161 0  0.3225806451612903 0.1290322580645161 0  0.3548387096774194 0.1290322580645161 0  0.3870967741935484 0.1290322580645161 0  0.4193548387096774 0.1290322580645161 0  0.4516129032258064 0.1290322580645161 0  0.4838709677419355 0.1290322580645161 0  0.5161290322580645 0.1290322580645161 0  0.5483870967741935 0.1290322580645161 0  0.5806451612903225 0.1290322580645161 0  0.6129032258064516 0.1290322580645161 0  0.6451612903225806 0.1290322580645161 0  0.6774193548387096 0.1290322580645161 0  0.7096774193548387 0.1290322580645161 0  0.7419354838709677 0.1290322580645161 0  0.7741935483870968 0.1290322580645161 0  0.8064516129032258 0.1290322580645161 0  0.8387096774193548 0.1290322580645161 0  0.8709677419354839 0.1290322580645161 0  0.9032258064516129 0.1290322580645161 0  0.9354838709677419 0.1290322580645161 0  0.967741935483871 0.1290322580645161 0  1 0.1290322580645161 0  0 0.1612903225806452 0  0.03225806451612903 0.1612903225806452 0  0.06451612903225806 0.1612903225806452 0  0.09677419354838709 0.1612903225806452 0  0.1290322580645161 0.1612903225806452 0  0.1612903225806452 0.1612903225806452 0  0.1935483870967742 0.1612903225806452 0  0.2258064516129032 0.1612903225806452 0  0.2580645161290323 0.1612903225806452 0  0.2903225806451613 0.1612903225806452 0  0.3225806451612903 0.1612903225806452 0  0.3548387096774194 0.1612903225806452 0  0.3870967741935484 0.1612903225806452 0  0.4193548387096774 0.1612903225806452 0  0.4516129032258064 0.1612903225806452 0  0.4838709677419355 0.1612903225806452 0  0.5161290322580645 0.1612903225806452 0  0.5483870967741935 0.1612903225806452 0  0.5806451612903225 0.1612903225806452 0  0.6129032258064516 0.1612903225806452 0  0.6451612903225806 0.1612903225806452 0  0.6774193548387096 0.1612903225806452 0  0.7096774193548387 0.1612903225806452 0  0.7419354838709677 0.1612903225806452 0  0.7741935483870968 0.1612903225806452 0  0.8064516129032258 0.1612903225806452 0  0.8387096774193548 0.1612903225806452 0  0.8709677419354839 0.1612903225806452 0  0.9032258064516129 0.1612903225806452 0  0.9354838709677419 0.1612903225806452 0  0.967741935483871 0.1612903225806452 0  1 0.1612903225806452 0  0 0.1935483870967742 0  0.03225806451612903 0.1935483870967742 0  0.06451612903225806 0.1935483870967742 0  0.09677419354838709 0.1935483870967742 0  0.1290322580645161 0.1935483870967742 0  0.1612903225806452 0.1935483870967742 0  0.1935483870967742 0.1935483870967742 0  0.2258064516129032 0.1935483870967742 0  0.2580645161290323 0.1935483870967742 0  0.2903225806451613 0.1935483870967742 0  0.3225806451612903 0.1935483870967742 0  0.3548387096774194 0.1935483870967742 0  0.3870967741935484 0.1935483870967742 0  0.4193548387096774 0.1935483870967742 0  0.4516129032258064 0.1935483870967742 0  0.4838709677419355 0.1935483870967742 0  0.5161290322580645 0.1935483870967742 0  0.5483870967741935 0.1935483870967742 0  0.5806451612903225 0.1935483870967742 0  0.6129032258064516 0.1935483870967742 0  0.6451612903225806 0.1935483870967742 0  0.6774193548387096 0.1935483870967742 0  0.7096774193548387 0.1935483870967742 0  0.7419354838709677 0.1935483870967742 0  0.7741935483870968 0.1935483870967742 0  0.8064516129032258 0.1935483870967742 0  0.8387096774193548 0.1935483870967742 0  0.8709677419354839 0.1935483870967742 0  0.9032258064516129 0.1935483870967742 0  0.9354838709677419 0.1935483870967742 0  0.967741935483871 0.1935483870967742 0  1 0.1935483870967742 0  0 0.2258064516129032 0  0.03225806451612903 0.2258064516129032 0  0.06451612903225806 0.2258064516129032 0  0.09677419354838709 0.2258064516129032 0  0.1290322580645161 0.2258064516129032 0  0.1612903225806452 0.2258064516129032 0  0.1935483870967742 0.2258064516129032 0  0.2258064516129032 0.2258064516129032 0  0.2580645161290323 0.2258064516129032 0  0.2903225806451613 0.2258064516129032 0  0.3225806451612903 0.2258064516129032 0  0.3548387096774194 0.2258064516129032 0  0.3870967741935484 0.2258064516129032 0  0.4193548387096774 0.2258064516129032 0  0.4516129032258064 0.2258064516129032 0  0.4838709677419355 0.2258064516129032 0  0.5161290322580645 0.2258064516129032 0  0.5483870967741935 0.2258064516129032 0  0.5806451612903225 0.2258064516129032 0  0.6129032258064516 0.2258064516129032 0  0.6451612903225806 0.2258064516129032 0  0.6774193548387096 0.2258064516129032 0  0.7096774193548387 0.2258064516129032 0  0.7419354838709677 0.2258064516129032 0  0.7741935483870968 0.2258064516129032 0  0.8064516129032258 0.2258064516129032 0  0.8387096774193548 0.2258064516129032 0  0.8709677419354839 0.2258064516129032 0  0.9032258064516129 0.2258064516129032 0  0.9354838709677419 0.2258064516129032 0  0.967741935483871 0.2258064516129032 0  1 0.225806451
[...]
<PointData  Scalars="f_39"> 
<DataArray  type="Float64"  Name="f_39"  format="ascii">0.0000000000000000e+00  2.7574716361549742e-03  9.9413395282055388e-03  2.1968985467323010e-02  4.2402761284796447e-02  7.3465591274443659e-02  1.1780211984533875e-01  1.7582005895687225e-01  2.4290631137027513e-01  3.1438175115896760e-01  3.8640838305569281e-01  4.5568656021714105e-01  5.1923952536425633e-01  5.7432487580831004e-01  6.1842119034511345e-01  6.4931000873244593e-01  6.6461779028427215e-01  6.6185237280936260e-01  6.3853983364416345e-01  5.9217892483544210e-01  5.2040354460771598e-01  4.2086431621992304e-01  2.9127855605321751e-01  1.2958880585078220e-01  -6.5784881213978838e-02  -2.9550491897256315e-01  -5.5657330181702502e-01  -8.1163180932025025e-01  -1.0911630167346420e+00  -1.7584133946295666e+00  -2.9387134315710042e+00  -4.5249551651003985e+00  0.0000000000000000e+00  1.9441956717044383e-03  7.5223003575054697e-03  1.9575037299903696e-02  4.1573037033892202e-02  7.2234338190433650e-02  1.1220419609711874e-01  1.6196464461826104e-01  2.1759988041271411e-01  2.7533305088711535e-01  3.3178028263062231e-01  3.8377243178482734e-01  4.2837752287404623e-01  4.6280256432126710e-01  4.8438851922239029e-01  4.9059547665235692e-01  4.7890815448827956e-01  4.4669753420432945e-01  3.9127093262794854e-01  3.0984948274717738e-01  1.9964148996666908e-01  5.7809296767106236e-02  -1.1854231164323573e-01  -3.3232115956931735e-01  -5.8627528399270423e-01  -8.8279569092006160e-01  -1.2226722054345160e+00  -1.6084354900269866e+00  -2.1153677380730485e+00  -2.9111179640488327e+00  -4.0465787393695587e+00  -5.5554732951908914e+00  0.0000000000000000e+00  8.9093667140058221e-04  5.4257267796219465e-03  1.6759514278233044e-02  3.7181174852339786e-02  6.5368311387822564e-02  1.0121573757960484e-01  1.4651600651597255e-01  2.0338969428740516e-01  2.9306350897307015e-01  3.5561940403618764e-01  3.5633072817133399e-01  3.5987550583493061e-01  3.6813405423224271e-01  3.6600681614878305e-01  3.5384492043313126e-01  3.4402146894101204e-01  2.8796320243195034e-01  1.7894096930735273e-01  6.1786965332213666e-02  -8.3247861556247735e-02  -2.6507983443814476e-01  -4.8636648094725576e-01  -7.5007612604857066e-01  -1.0605768967648226e+00  -1.4251805795778192e+00  -1.8485171254141397e+00  -2.3320543316038229e+00  -2.9573623247333507e+00  -3.8002615595881029e+00  -4.8700533771634458e+00  -6.2114000340824926e+00  0.0000000000000000e+00  9.7373262038413268e-04  5.6904154825426975e-03  1.6337681418032816e-02  3.3656324806077040e-02  5.8447836002077244e-02  9.1416002699405516e-02  1.3550089286941888e-01  1.9882167677294843e-01  3.0756670989783169e-01  3.7129339440581044e-01  3.5361679018529030e-01  3.2600003688440610e-01  2.9054867739028367e-01  2.6239380130687795e-01  2.4348460610378103e-01  2.1474723356249897e-01  1.2564187944536359e-01  -1.4754251769225755e-02  -1.6629714922493280e-01  -3.4537922920258812e-01  -5.6307947925107105e-01  -8.2331315179696229e-01  -1.1298033348750063e+00  -1.4879140400869639e+00  -1.9068856071553522e+00  -2.3936957690396850e+00  -2.9570115221166686e+00  -3.6398597173968055e+00  -4.4829056625630965e+00  -5.4968724296838287e+00  -6.6715465996274315e+00  0.0000000000000000e+00  1.0486244110038553e-03  5.2042941184333932e-03  1.4247877184449101e-02  2.9375600240231989e-02  5.1457120725039947e-02  8.2023465005631124e-02  1.2414687430390178e-01  1.8766313151522201e-01  2.5708326743608373e-01  2.9192443363348075e-01  2.9556378196195426e-01  2.6771536356053671e-01  2.1291610380703160e-01  1.6408019114190880e-01  1.2048227364800047e-01  4.3464864549163859e-02  -7.4380607794545930e-02  -2.1875063269684752e-01  -3.9553225904949041e-01  -6.0470038466682108e-01  -8.5179651834283643e-01  -1.1422173689119088e+00  -1.4810634775521494e+00  -1.8740136349273244e+00  -2.3285915464428593e+00  -2.8541722684027366e+00  -3.4647915559557996e+00  -4.1821868673193139e+00  -5.0227309795304826e+00  -5.9833664123769088e+00  -7.0343276642583898e+00  0.0000000000000000e+00  3.9352147285946358e-04  3.2769837108772041e-03  1.0996621527679249e-02  2.4427451687864310e-02  4.4397420437654059e-02  7.1956340825867285e-02  1.1083466821657836e-01  1.6266689376122134e-01  1.9885431336115195e-01  2.0903686946683284e-01  2.0061626768198682e-01  1.6798494897519919e-01  1.1721908963541162e-01  5.3283149662729241e-02  -2.5760441803180649e-02  -1.2820783559026566e-01  -2.6036356828091878e-01  -4.2380547637190752e-01  -6.1944019315872978e-01  -8.5053993963508367e-01  -1.1208634597170850e+00  -1.4351763374238236e+00  -1.7987274765410246e+00  -2.2175442982235607e+00  -2.6990042927539797e+00  -3.2523813614472532e+00  -3.8894435840667176e+00  -4.6229688526551644e+00  -5.4613058532470884e+00  -6.3991987809608730e+00  -7.4063205898575779e+00  0.0000000000000000e+00  -8.7293126085838879e-04  2.9229755412603278e-04  6.9613644970118746e-03  1.9669669637636243e-02  3.7900018992972462e-02  6.3805269610244991e-02  9.6977358111770648e-02  1.2539235870429954e-01  1.3865028571009788e-01  1.3389235316280049e-01  1.1086669410392551e-01  6.9255699322129868e-02  9.1795749053766203e-03  -6.8849923895256543e-02  -1.6666005600931108e-01  -2.8809454775222465e-01  -4.3701169347375551e-01  -6.1639585577143008e-01  -8.2889667578836246e-01  -1.0775251010473235e+00  -1.3660280027276266e+00  -1.6987709396074440e+00  -2.0808182611350752e+00  -2.5180912926350425e+00  -3.0176626227886283e+00  -3.5880566054394150e+00  -4.2391910622213995e+00  -4.9814018641891948e+00  -5.8228948581380244e+00  -6.7658556529248015e+00  -7.8046413326450832e+00  0.0000000000000000e+00  -2.7281729287859913e-03  -3.2046009894205092e-03  4.0171303079645703e-03  1.4325359774780900e-02  3.4239591885191073e-02  5.8993155845329256e-02  7.6288899113102174e-02  8.4685030725504470e-02  8.0665889730030402e-02  6.2150030220259264e-02  2.7132579761796144e-02  -2.5477578933708556e-02  -9.6561627464903266e-02  -1.8725398073611360e-01  -2.9942839205867006e-01  -4.3576888136896136e-01  -5.9927552869204559e-01  -7.9288711669524548e-01  -1.0195342261293863e+00  -1.2823680354616500e+00  -1.5849524122048981e+00  -1.9313894631574886e+00  -2.3264195698612031e+00  -2.7755860130866461e+00  -3.2854595166600049e+00  -3.8638669887867403e+00  -4.5200326339671157e+00  -5.2645487956654726e+00  -6.1093707761955613e+00  -7.0686734812666270e+00  -8.1683989450281889e+00  0.0000000000000000e+00  -7.7256082977090303e-03  -8.6868013792501895e-03  7.3251276379976953e-03  1.8429744870811109e-02  3.1979958662044103e-02  4.6327962597340136e-02  4.8641410911505790e-02  4.3000271769268412e-02  2.6114352483213650e-02  -4.3637214109355366e-03  -5.0336515127643755e-02  -1.1342795090378475e-01  -1.9511767130512203e-01  -2.9702224450409831e-01  -4.2110375780656517e-01  -5.6970520779835943e-01  -7.4542973078131047e-01  -9.5101321731391741e-01  -1.1893064096034816e+00  -1.4633541291049199e+00  -1.7765038409480645e+00  -2.1325145698655996e+00  -2.5356794721389129e+00  -2.9909851250424238e+00  -3.5043337505561567e+00  -4.0828505902704411e+00  -4.7353364528570205e+00  -5.4730652359556373e+00  -6.3114445035757676e+00  -7.2738005441598252e+00  -8.4069855344400874e+00  0.0000000000000000e+00  -3.4667917972659979e-03  -2.0124156142880818e-03  1.1826476261313789e-02  2.2541719273790152e-02  2.5427345910366508e-02  2.5639918362733702e-02  1.9175348262409801e-02  2.9920015902952400e-03  -2.4291820586745588e-02  -6.4771694018574799e-02  -1.2037577284333691e-01  -1.9289251720165568e-01  -2.8406059568992892e-01  -3.9569416883483471e-01  -5.2978307527910184e-01  -6.8852760753686770e-01  -8.7431122283174822e-01  -1.0896590069000849e+00  -1.3372263362388450e+00  -1.6198281770556440e+00  -1.9404968722212501e+00  -2.3025588857075516e+00  -2.7097352842872819e+00  -3.1662849915090092e+00  -3.6772234419060386e+00  -4.2486784292804458e+00  -4.8885081928585761e+00  -5.6074403124982082e+00  -6.4212245197540057e+00  -7.3547790497242378e+00  -8.4580783827136354e+00  0.0000000000000000e+00  2.1210862972706910e-03  6.7521075885182249e-03  1.2113141086741254e-02  1.5516860985077945e-02  1.3613186737281310e-02  5.6494424434453535e-03  -9.4549519249134788e-03  -3.3833688163409016e-02  -6.9482294309278908e-02  -1.1825611282716839e-01  -1.8203759968423250e-01  -2.6266544077725185e-01  -3.6197091395165731e-01  -4.8183430265411742e-01  -6.2423582964148716e-01  -7.9127861806005306e-01  -9.8518516831389402e-01  -1.2082819357480945e+00  -1.4629909817177298e+00  -1.7518368302132223e+00  -2.0774696601480782e+00  -2.4427049212970138e+00  -2.8505844700136063e+00  -3.3044760258618702e+00  -3.8082426298364807e+00  -4.3665437378505825e+00  -4.9853782416809471e+00  -5.6730534526993948e+00  -6.4418580236821708e+00  -7.3111118654292344e+00  -8.3203879097507176e+00  0.0000000000000000e+00  1.0499963133409555e-03  5.8327091320233655e-03  9.5370767353452155e-03  7.2628586020307747e-03  -7.0699923367610260e-05  -1.3761688194272762e-02  -3.5252871363591565e-02  -6.6233203171563282e-02  -1.0854907927249301e-01  -1.6404149743359270e-01  -2.3454252230815897e-01  -3.2188761571750463e-01  -4.2792487405334900e-01  -5.5453969098063960e-01  -7.0367716892128584e-01  -8.7735336529510477e-01  -1.0776526103355337e+00  -1.3067155594499289e+00  -1.5667254307175422e+00  -1.8598968373439266e+00  -2.1884691311081177e+00  -2.5547057092089918e+00  -2.9609026937266574e+00  -3.4094172303093786e+00  -3.9027346349820560e+00  -4.4436099199541550e+00  -5.0353379855046683e+00  -5.6822177289429154e+00  -6.3902790606057938e+00  -7.1686835760659324e+00  -8.0399967304694044e+00  0.0000000000000000e+00  2.7395350778354074e-03  5.7643804440766187e-03  4.3916238175040348e-03  -1.4949389053329422e-03  -1.2927352596897972e-02  -3.1015056257023201e-02  -5.7244836693637086e-02  -9.3240206411890819e-02  -1.4072269947101504e-01  -2.0146578864270948e-01  -2.7726389636893045e-01  -3.6992902676556738e-01  -4.8129491906324251e-01  -6.1322450017768115e-01  -7.6761654635144105e-01  -9.4640599058053843e-01  -1.1515554112323649e+00  -1.3850379925871921e+00  -1.6488138347636325e+00  -1.9448007519436916e+00  -2.2748391092899247e+00  -2.6406494437917019e+00  -3.0437813406944176e+00  -3.4855530477042880e+00  -3.9669820340871871e+00  -4.4887057785096811e+00  -5.0508831086196828e+00  -5.6530371131849471e+00  -6.2937601309475113e+00  -6.9705607155562763e+00  -7.6880848961448924e+00  0.0000000000000000e+00  2.0921493326911357e-03  3.2000463996816812e-03  -8.4883724594306275e-04  -9.4641446228642782e-03  -2.3702304539948732e-02  -4.4906072908784248e-02  -7.4527873874332518e-02  -1.1413716777342447e-01  -1.6538821851266167e-01  -2.2999576323572807e-01  -3.0971489607780228e-01  -4.0632990162228144e-01  -5.2165028560812332e-01  -6.5750890259086114e-01  -8.1575866991645407e-01  -9.9826452046096747e-01  -1.2068879399420553e+00  -1.4434626224775380e+00  -1.7097599973427677e+00  -2.0074432212004707e+00  -2.3380062071621488e+00  -2.7026924052523080e+00  -3.1023855072070816e+00  -3.5374596947098649e+00  -4.0075698492084344e+00  -4.5113472600469677e+00  -5.0459384088148385e+00  -5.6062747901665873e+00  -6.1839108591892717e+00  -6.7657030540431808e+00  -7.3409462168715418e+00  0.0000000000000000e+00  7.4693845369468322e-04  -5.0303429553604190e-05  -5.3437106134351930e-03  -1.5455140554565525e-02  -3.1435572877367812e-02  -5.4614586167211196e-02  -8.6417728685643236e-02  -1.2837042060055792e-01  -1.8208284120234686e-01  -2.4923071742387654e-01  -3.3153855964665313e-01  -4.3076685442851503e-01  -5.4870303702632395e-01  -6.8715381230664296e-01  -8.4793587480179045e-01  -1.0328621133875151e+00  -1.2437206241741967e+00  -1.4822440407739554e+00  -1.7500662577585298e+00  -2.0486632713093860e+00  -2.3792722454054158e+00  -2.7427799352252777e+00  -3.1395670180394815e+00  -3.5692862519634390e+00  -4.0305392509873545e+00  -4.5203927422321790e+00  -5.0336370411117972e+00  -5.5616315299711072e+00  -6.0905395388739327e+00  -6.5992657102603918e+00  -7.0661051468478728e+00  0.0000000000000000e+00  -1.6056612487527620e-04  -2.1385550307063440e-03  -7.9446152816154605e-03  -1.8663907675641682e-02  -3.5459094336444633e-02  -5.9592077962397905e-02  -9.2459952482956867e-02  -1.3556438647469532e-01  -1.9049312815056091e-01  -2.5890225026079855e-01  -3.4249998301775542e-01  -4.4303318642435324e-01  -5.6227618932058643e-01  -7.0202034625761223e-01  -8.6406187243925547e-01  -1.0501851644278013e+00  -1.2621388192753054e+00  -1.5016013977169087e+00  -1.7701332161246834e+00  -2.0691098806981412e+00  -2.3996303180709200e+00  -2.7623883334663106e+00  -3.1574910213168614e+00  -3.5841965327005330e+00  -4.0405274851221993e+00  -4.5226881850944531e+00  -5.0241712711452564e+00  -5.5343796903146671e+00  -6.0365555645746953e+00  -6.5053589403337888e+00  -6.9133389324136365e+00  0.0000000000000000e+00  -1.5978472831547087e-04  -2.1313261703117996e-03  -7.9290771173239870e-03  -1.8642972986694629e-02  -3.5432705371923431e-02  -5.9560780420698914e-02  -9.2425216840570978e-02  -1.3552860501932057e-01  -1.9045945400639264e-01  -2.5887430106124976e-01  -3.4248143066922021e-01  -4.4302727954771415e-01  -5.6228527017769458e-01  -7.0204542126964498e-01  -8.6410227177959964e-01  -1.0502382959387306e+00  -1.2621999873645600e+00  -1.5016636201205253e+00  -1.7701869510365635e+00  -2.0691425642432124e+00  -2.3996255982055921e+00  -2.7623248738357669e+00  -3.1573407374907925e+00  -3.5839220650730597e+00  -4.0400786519888179e+00  -4.5219970899201343e+00  -5.0231455695648997e+00  -5.5328930830401761e+00  -6.0344348324208372e+00  -6.5023669638570532e+00  -6.9091417465109970e+00  0.0000000000000000e+00  7.5467353356047486e-04  -2.4484740204571205e-05  -5.2993520894846578e-03  -1.5393763699849912e-02  -3.1356683762556625e-02  -5.4519817082696972e-02  -8.6311570084593225e-02  -1.2826025417960607e-01  -1.8197846098211853e-01  -2.4914342012971796e-01  -3.3147987100293053e-01  -4.3074703434390671e-01  -5.4872956450710886e-01  -6.8723005223926048e-01  -8.4806005131182338e-01  -1.0330266086043087e+00  -1.2439115048899991e+00  -1.4824406008137230e+00  -1.7502403046897970e+00  -2.0487778553440359e+00  -2.3792794847129262e+00  -2.7426175734902962e+00  -3.1391533266779685e+00  -3.5685127246890747e+00  -4.0292603540552498e+00  -4.5184118276897518e+00  -5.0306870223564895e+00  -5.5573479351043522e+00  -6.0844235583892248e+00  -6.5906365236967694e+00  -7.0540033443376053e+00  0.0000000000000000e+00  2.1088910556934398e-03  3.2425185599064951e-03  -7.8249275287332280e-04  -9.3664742701122239e-03  -2.3571734872796672e-02  -4.4745084661553740e-02  -7.4344200144429773e-02  -1.1394380273074238e-01  -1.6520260444911591e-01  -2.2983823813107102e-01  -3.0960644020782535e-01  -4.0628940904848360e-01  -5.2169177940663780e-01  -6.5763914472872675e-01  -8.1597543676973283e-01  -9.9855556892401620e-01  -1.2072304625640866e+00  -1.4438227984783938e+00  -1.7100921656488244e+00  -2.0076881484740419e+00  -2.3380878646552281e+00  -2.7025126907163246e+00  -3.1018163478133269e+00  -3.5363317365440681e+00  -4.0056566764884280e+00  -4.5083437793581478e+00  -5.0414314828856037e+00  -5.5997028423988509e+00  -6.1745091982401448e+00  -6.7524321950105923e+00  -7.3223416707594673e+00  0.0000000000000000e+00  2.7475937228757024e-03  5.7997083117677390e-03  4.4688825934292428e-03  -1.3682064400510378e-03  -1.2746423172954722e-02  -3.0782836559309676e-02  -5.6972759063420517e-02  -9.2947843782619874e-02  -1.4043675433751546e-01  -2.0121804064287727e-01  -2.7708774708903255e-01  -3.6985501506047108e-01  -4.8134613489871014e-01  -6.1341283665805824e-01  -7.6794027313863544e-01  -9.4684864297026983e-01  -1.1520855768968576e+00  -1.3856093693183675e+00  -1.6493648671694841e+00  -1.9452530309152665e+00  -2.2750936651988507e+00  -2.6405802285443505e+00  -3.0432252790455738e+00  -3.4842958364853627e+00  -3.9647385745716557e+00  -4.4850936836513355e+00  -5.0453870641570573e+00  -5.6449611182018860e+00  -6.2821643788051915e+00  -6.9541804257867073e+00  -7.6651406683740504e+00  0.0000000000000000e+00  1.0398077537875528e-03  5.8398910156495613e-03  9.6054997767827440e-03  7.4070907455364042e-03  1.5901692348630977e-04  -1.3450396738660535e-02  -3.4875874370574059e-02  -6.5817502296862035e-02  -1.0813263036304802e-01  -1.6367127602216214e-01  -2.3426930759503331e-01  -3.2175859435174325e-01  -4.2797617894094092e-01  -5.5479072887823633e-01  -7.0412762513810245e-01  -8.7798253084393874e-01  -1.0784201019911417e+00  -1.3075626360855779e+00  -1.5675759978089236e+00  -1.8606568581889469e+00  -2.1890231858715961e+00  -2.5549098566635942e+00  -2.9605731685256105e+00  -3.4083145655975313e+00  -3.9005423950151021e+00  -4.4399066759624262e+00  -5.0295599812314560e+00  -5.6736103100363717e+00  -6.3778371293003211e+00  -7.1510828560824828e+00  -8.0153882924620312e+00  0.0000000000000000e+00  2.0837473969192583e-03  6.7004908175873571e-03  1.2138743748552037e-02  1.5662567625392570e-02  1.3891082069486707e-02  6.0510127750628044e-03  -8.9507509947693766e-03  -3.3259891825699044e-02  -6.8890148860908135e-02  -1.1771358860322607e-01  -1.8162118732657295e-01  -2.6244732094366169e-01  -3.6200617086272657e-01  -4.8215264488661302e-01  -6.2483868511497986e-01  -7.9213987832493138e-01  -9.8625370129918066e-01  -1.2094850819281642e+00  -1.4642382493972943e+00  -1.7530217878086698e+00  -2.0784677321358758e+00  -2.4433659120454232e+00  -2.8507200544215112e+00  -3.3038431340639272e+00  -3.8065227527280632e+00  -4.3633169404243617e+00  -4.9800892811776869e+00  -5.6649686700187507e+00  -6.4300187184718034e+00  -7.2943021267508987e+00  -8.2969738337176935e+00  0.0000000000000000e+00  -3.5696295311029272e-03  -2.2026810502493305e-03  1.1742187010729203e-02  2.2669064317805337e-02  2.5760830610817419e-02  2.6141916471997494e-02  1.9833223135290859e-02  3.7707294171164551e-03  -2.3457730641825221e-02  -6.3980209697660176e-02  -1.1974423406495577e-01  -1.9253277389946299e-01  -2.8405523298215485e-01  -3.9608506443243108e-01  -5.3057172882787196e-01  -6.8967959646591737e-01  -8.7576074921169889e-01  -1.0913149042350179e+00  -1.3389808112683477e+00  -1.6215643831572422e+00  -1.9420892693844376e+00  -2.3038644231386396e+00  -2.7105782268177814e+00  -3.1664396974723608e+00  -3.6763965031005790e+00  -4.2464887186236071e+00  -4.8844617270139326e+00  -5.6008992121963059e+00  -6.4113783517343759e+00  -7.3406642350883073e+00  -8.4385225583308596e+00  0.0000000000000000e+00  -7.8097469845665769e-03  -8.8487777896835464e-03  7.2604523144113673e-03  1.8574682043868918e-02  3.2358353783992572e-02  4.6935510539653676e-02  4.9477833046538827e-02  4.4042304974068851e-02  2.7286813001680676e-02  -3.2018965706613737e-03  -4.9375686291733202e-02  -1.1284816322918803e-01  -1.9503935292878707e-01  -2.9749517257957792e-01  -4.2212280720179957e-01  -5.7122426427275497e-01  -7.4736256240570975e-01  -9.5323900190394295e-01  -1.1916899443897477e+00  -1.4657676001478328e+00  -1.7788319386244742e+00  -2.1346387831436697e+00  -2.5374548336183729e+00  -2.9922211615042835e+00  -3.5047826944023344e+00  -4.0821984764850257e+00  -4.7331916076818601e+00  -5.4689449999710398e+00  -6.3047708420529416e+00  -7.2639516972182747e+00  -8.3933826447341815e+00  0.0000000000000000e+00  -2.7350661357509803e-03  -3.2050955371924388e-03  4.0897660038290966e-03  1.4540264399440502e-02  3.4663116289499231e-02  5.9706262694016285e-02  7.7313078497290397e-02  8.6039661725008099e-02  8.2322116548383686e-02  6.3888292107725661e-02  2.8613224493424877e-02  -2.4567409154405147e-02  -9.6384356530490059e-02  -1.8783223896484874e-01  -3.0073580353601415e-01  -4.3775467607985752e-01  -6.0183143432898323e-01  -7.9583474225364270e-01  -1.0226796071344240e+00  -1.2855696411050368e+00  -1.5881277047607116e+00  -1.9344739452649895e+00  -2.3293183769749515e+00  -2.7781530760481554e+00  -3.2875011628409085e+00  -3.8651506012290189e+00  -4.5202916589260411e+00  -5.2634894491908684e+00  -6.1066973605050778e+00  -7.0641724638817447e+00  -8.1621151849464226e+00  0.0000000000000000e+00  -8.6246809256076474e-04  3.3780999909331004e-04  7.0811083796716119e-03  1.9923335188386838e-02  3.8355823891308233