<?xml version="1.0"?>
<VTKFile type="UnstructuredGrid"  version="0.1"  >
<UnstructuredGrid>
<Piece  NumberOfPoints="1024" NumberOfCells="961">
<Points>
<DataArray  type="Float64"  NumberOfComponents="3"  format="ascii">0 0 0  0.03225806451612903 0 0  0.06451612903225806 0 0  0.09677419354838709 0 0  0.1290322580645161 0 0  0.1612903225806452 0 0  0.1935483870967742 0 0  0.2258064516129032 0 0  0.2580645161290323 0 0  0.2903225806451613 0 0  0.3225806451612903 0 0  0.3548387096774194 0 0  0.3870967741935484 0 0  0.4193548387096774 0 0  0.4516129032258064 0 0  0.4838709677419355 0 0  0.5161290322580645 0 0  0.5483870967741935 0 0  0.5806451612903225 0 0  0.6129032258064516 0 0  0.6451612903225806 0 0  0.6774193548387096 0 0  0.7096774193548387 0 0  0.7419354838709677 0 0  0.7741935483870968 0 0  0.8064516129032258 0 0  0.8387096774193548 0 0  0.8709677419354839 0 0  0.9032258064516129 0 0  0.9354838709677419 0 0  0.967741935483871 0 0  1 0 0  0 0.03225806451612903 0  0.03225806451612903 0.03225806451612903 0  0.06451612903225806 0.03225806451612903 0  0.09677419354838709 0.03225806451612903 0  0.1290322580645161 0.03225806451612903 0  0.1612903225806452 0.03225806451612903 0  0.1935483870967742 0.03225806451612903 0  0.2258064516129032 0.03225806451612903 0  0.2580645161290323 0.03225806451612903 0  0.2903225806451613 0.03225806451612903 0  0.3225806451612903 0.03225806451612903 0  0.3548387096774194 0.03225806451612903 0  0.3870967741935484 0.03225806451612903 0  0.4193548387096774 0.03225806451612903 0  0.4516129032258064 0.03225806451612903 0  0.4838709677419355 0.03225806451612903 0  0.5161290322580645 0.03225806451612903 0  0.5483870967741935 0.03225806451612903 0  0.5806451612903225 0.03225806451612903 0  0.6129032258064516 0.03225806451612903 0  0.6451612903225806 0.03225806451612903 0  0.6774193548387096 0.03225806451612903 0  0.7096774193548387 0.03225806451612903 0  0.7419354838709677 0.03225806451612903 0  0.7741935483870968 0.03225806451612903 0  0.8064516129032258 0.03225806451612903 0  0.8387096774193548 0.03225806451612903 0  0.8709677419354839 0.03225806451612903 0  0.9032258064516129 0.03225806451612903 0  0.9354838709677419 0.03225806451612903 0  0.967741935483871 0.03225806451612903 0  1 0.03225806451612903 0  0 0.06451612903225806 0  0.03225806451612903 0.06451612903225806 0  0.06451612903225806 0.06451612903225806 0  0.09677419354838709 0.06451612903225806 0  0.1290322580645161 0.06451612903225806 0  0.1612903225806452 0.06451612903225806 0  0.1935483870967742 0.06451612903225806 0  0.2258064516129032 0.06451612903225806 0  0.2580645161290323 0.06451612903225806 0  0.2903225806451613 0.06451612903225806 0  0.3225806451612903 0.06451612903225806 0  0.3548387096774194 0.06451612903225806 0  0.3870967741935484 0.06451612903225806 0  0.4193548387096774 0.06451612903225806 0  0.4516129032258064 0.06451612903225806 0  0.4838709677419355 0.06451612903225806 0  0.5161290322580645 0.06451612903225806 0  0.5483870967741935 0.06451612903225806 0  0.5806451612903225 0.06451612903225806 0  0.6129032258064516 0.06451612903225806 0  0.6451612903225806 0.06451612903225806 0  0.6774193548387096 0.06451612903225806 0  0.7096774193548387 0.06451612903225806 0  0.7419354838709677 0.06451612903225806 0  0.7741935483870968 0.06451612903225806 0  0.8064516129032258 0.06451612903225806 0  0.8387096774193548 0.06451612903225806 0  0.8709677419354839 0.06451612903225806 0  0.9032258064516129 0.06451612903225806 0  0.9354838709677419 0.06451612903225806 0  0.967741935483871 0.06451612903225806 0  1 0.06451612903225806 0  0 0.09677419354838709 0  0.03225806451612903 0.09677419354838709 0  0.06451612903225806 0.09677419354838709 0  0.09677419354838709 0.09677419354838709 0  0.1290322580645161 0.09677419354838709 0  0.1612903225806452 0.09677419354838709 0  0.1935483870967742 0.09677419354838709 0  0.2258064516129032 0.09677419354838709 0  0.2580645161290323 0.09677419354838709 0  0.2903225806451613 0.09677419354838709 0  0.3225806451612903 0.09677419354838709 0  0.3548387096774194 0.09677419354838709 0  0.3870967741935484 0.09677419354838709 0  0.4193548387096774 0.09677419354838709 0  0.4516129032258064 0.09677419354838709 0  0.4838709677419355 0.09677419354838709 0  0.5161290322580645 0.09677419354838709 0  0.5483870967741935 0.09677419354838709 0  0.5806451612903225 0.09677419354838709 0  0.6129032258064516 0.09677419354838709 0  0.6451612903225806 0.09677419354838709 0  0.6774193548387096 0.09677419354838709 0  0.7096774193548387 0.09677419354838709 0  0.7419354838709677 0.09677419354838709 0  0.7741935483870968 0.09677419354838709 0  0.8064516129032258 0.09677419354838709 0  0.8387096774193548 0.09677419354838709 0  0.8709677419354839 0.09677419354838709 0  0.9032258064516129 0.09677419354838709 0  0.9354838709677419 0.09677419354838709 0  0.967741935483871 0.09677419354838709 0  1 0.09677419354838709 0  0 0.1290322580645161 0  0.03225806451612903 0.1290322580645161 0  0.06451612903225806 0.1290322580645161 0  0.09677419354838709 0.1290322580645161 0  0.1290322580645161 0.1290322580645161 0  0.1612903225806452 0.1290322580645161 0  0.1935483870967742 0.1290322580645161 0  0.2258064516129032 0.1290322580645161 0  0.2580645161290323 0.1290322580645161 0  0.2903225806451613 0.1290322580645161 0  0.3225806451612903 0.1290322580645161 0  0.3548387096774194 0.1290322580645161 0  0.3870967741935484 0.1290322580645161 0  0.4193548387096774 0.1290322580645161 0  0.4516129032258064 0.1290322580645161 0  0.4838709677419355 0.1290322580645161 0  0.5161290322580645 0.1290322580645161 0  0.5483870967741935 0.1290322580645161 0  0.5806451612903225 0.1290322580645161 0  0.6129032258064516 0.1290322580645161 0  0.6451612903225806 0.1290322580645161 0  0.6774193548387096 0.1290322580645161 0  0.7096774193548387 0.1290322580645161 0  0.7419354838709677 0.1290322580645161 0  0.7741935483870968 0.1290322580645161 0  0.8064516129032258 0.1290322580645161 0  0.8387096774193548 0.1290322580645161 0  0.8709677419354839 0.1290322580645161 0  0.9032258064516129 0.1290322580645161 0  0.9354838709677419 0.1290322580645161 0  0.967741935483871 0.1290322580645161 0  1 0.1290322580645161 0  0 0.1612903225806452 0  0.03225806451612903 0.1612903225806452 0  0.06451612903225806 0.1612903225806452 0  0.09677419354838709 0.1612903225806452 0  0.1290322580645161 0.1612903225806452 0  0.1612903225806452 0.1612903225806452 0  0.1935483870967742 0.1612903225806452 0  0.2258064516129032 0.1612903225806452 0  0.2580645161290323 0.1612903225806452 0  0.2903225806451613 0.1612903225806452 0  0.3225806451612903 0.1612903225806452 0  0.3548387096774194 0.1612903225806452 0  0.3870967741935484 0.1612903225806452 0  0.4193548387096774 0.1612903225806452 0  0.4516129032258064 0.1612903225806452 0  0.4838709677419355 0.1612903225806452 0  0.5161290322580645 0.1612903225806452 0  0.5483870967741935 0.1612903225806452 0  0.5806451612903225 0.1612903225806452 0  0.6129032258064516 0.1612903225806452 0  0.6451612903225806 0.1612903225806452 0  0.6774193548387096 0.1612903225806452 0  0.7096774193548387 0.1612903225806452 0  0.7419354838709677 0.1612903225806452 0  0.7741935483870968 0.1612903225806452 0  0.8064516129032258 0.1612903225806452 0  0.8387096774193548 0.1612903225806452 0  0.8709677419354839 0.1612903225806452 0  0.9032258064516129 0.1612903225806452 0  0.9354838709677419 0.1612903225806452 0  0.967741935483871 0.1612903225806452 0  1 0.1612903225806452 0  0 0.1935483870967742 0  0.03225806451612903 0.1935483870967742 0  0.06451612903225806 0.1935483870967742 0  0.09677419354838709 0.1935483870967742 0  0.1290322580645161 0.1935483870967742 0  0.1612903225806452 0.1935483870967742 0  0.1935483870967742 0.1935483870967742 0  0.2258064516129032 0.1935483870967742 0  0.2580645161290323 0.1935483870967742 0  0.2903225806451613 0.1935483870967742 0  0.3225806451612903 0.1935483870967742 0  0.3548387096774194 0.1935483870967742 0  0.3870967741935484 0.1935483870967742 0  0.4193548387096774 0.1935483870967742 0  0.4516129032258064 0.1935483870967742 0  0.4838709677419355 0.1935483870967742 0  0.5161290322580645 0.1935483870967742 0  0.5483870967741935 0.1935483870967742 0  0.5806451612903225 0.1935483870967742 0  0.6129032258064516 0.1935483870967742 0  0.6451612903225806 0.1935483870967742 0  0.6774193548387096 0.1935483870967742 0  0.7096774193548387 0.1935483870967742 0  0.7419354838709677 0.1935483870967742 0  0.7741935483870968 0.1935483870967742 0  0.8064516129032258 0.1935483870967742 0  0.8387096774193548 0.1935483870967742 0  0.8709677419354839 0.1935483870967742 0  0.9032258064516129 0.1935483870967742 0  0.9354838709677419 0.1935483870967742 0  0.967741935483871 0.1935483870967742 0  1 0.1935483870967742 0  0 0.2258064516129032 0  0.03225806451612903 0.2258064516129032 0  0.06451612903225806 0.2258064516129032 0  0.09677419354838709 0.2258064516129032 0  0.1290322580645161 0.2258064516129032 0  0.1612903225806452 0.2258064516129032 0  0.1935483870967742 0.2258064516129032 0  0.2258064516129032 0.2258064516129032 0  0.2580645161290323 0.2258064516129032 0  0.2903225806451613 0.2258064516129032 0  0.3225806451612903 0.2258064516129032 0  0.3548387096774194 0.2258064516129032 0  0.3870967741935484 0.2258064516129032 0  0.4193548387096774 0.2258064516129032 0  0.4516129032258064 0.2258064516129032 0  0.4838709677419355 0.2258064516129032 0  0.5161290322580645 0.2258064516129032 0  0.5483870967741935 0.2258064516129032 0  0.5806451612903225 0.2258064516129032 0  0.6129032258064516 0.2258064516129032 0  0.6451612903225806 0.2258064516129032 0  0.6774193548387096 0.2258064516129032 0  0.7096774193548387 0.2258064516129032 0  0.7419354838709677 0.2258064516129032 0  0.7741935483870968 0.2258064516129032 0  0.8064516129032258 0.2258064516129032 0  0.8387096774193548 0.2258064516129032 0  0.8709677419354839 0.2258064516129032 0  0.9032258064516129 0.2258064516129032 0  0.9354838709677419 0.2258064516129032 0  0.967741935483871 0.2258064516129032 0  1 0.225806451
[...]
<PointData  Scalars="f_39"> 
<DataArray  type="Float64"  Name="f_39"  format="ascii">0.0000000000000000e+00  -7.5846766285908213e-05  -5.0238292605671797e-04  -9.3663574276912518e-04  -2.4854105808420608e-04  2.0066487615470422e-03  6.0877778134965296e-03  1.2476934175209450e-02  2.0622131329786679e-02  2.9496124958390539e-02  3.8391571067570934e-02  4.6744505087363927e-02  5.4071898367938118e-02  5.9936487522197657e-02  6.3940457234710452e-02  6.5723320306461511e-02  6.4904598690186360e-02  6.1091642674364066e-02  5.3894493563079349e-02  4.2918549254144192e-02  2.7782784771763245e-02  8.0925086311484651e-03  -1.6549728994670519e-02  -4.6534634967728333e-02  -8.2227253130853356e-02  -1.2394318192727458e-01  -1.7182816563704706e-01  -2.2600815840322402e-01  -2.8611870175574694e-01  -3.5920145182534780e-01  -4.8370994966768710e-01  -6.5543168279188868e-01  0.0000000000000000e+00  -2.2038698059108117e-04  -5.3343408364657095e-04  -3.9253676974042664e-04  1.0566880412610515e-03  4.0368483982540122e-03  8.4590578693811876e-03  1.4579858144091098e-02  2.1891421141860021e-02  2.9629891916253832e-02  3.7163475378415738e-02  4.3954485595994644e-02  4.9522783965929726e-02  5.3425614867058165e-02  5.5244844043770940e-02  5.4582525032727716e-02  5.1045603466692270e-02  4.4229708239111425e-02  3.3720606494734406e-02  1.9092830882437926e-02  -8.5435491472139920e-05  -2.4260588780966579e-02  -5.3895950240601544e-02  -8.9473186405253924e-02  -1.3147219933938140e-01  -1.8037084856356944e-01  -2.3653772541929347e-01  -3.0007452715022986e-01  -3.6924838072261285e-01  -4.6267962592750289e-01  -5.8759030568457193e-01  -7.3298241798302688e-01  0.0000000000000000e+00  -2.3834316631927819e-04  -4.0137287223040665e-04  1.3523584466692195e-04  1.8648829657719255e-03  4.8768448820705216e-03  9.0471986587345975e-03  1.4513934463790873e-02  2.0940422250517780e-02  2.6966483740355096e-02  3.1993601382273570e-02  3.8897347493762953e-02  4.6110600147075208e-02  4.9396402090592158e-02  4.9478620703654677e-02  4.8351058327461942e-02  4.6093378234355026e-02  3.6173722754288040e-02  1.9295169327957544e-02  7.3515016656163119e-05  -2.5152155504421597e-02  -5.5908696236378147e-02  -9.0861396102668662e-02  -1.3157077620375013e-01  -1.7827435263509878e-01  -2.3357546786732802e-01  -2.9754262660338188e-01  -3.6924207714267299e-01  -4.4865765886893361e-01  -5.4631173420840518e-01  -6.6563406897122668e-01  -8.0406696878050810e-01  0.0000000000000000e+00  -8.2405433292809734e-05  5.1725163593991649e-05  8.6776618822224363e-04  2.5303751746623224e-03  5.1658694259555105e-03  8.7719780597132306e-03  1.3292671358636484e-02  1.8532911861218710e-02  2.3627448746009659e-02  2.9470506306502608e-02  3.9743687551763072e-02  4.7990862250284601e-02  4.9074758320932457e-02  4.7502912255692455e-02  4.4956858195054961e-02  3.7746155863455602e-02  2.1425060528249839e-02  -1.3237099341592302e-04  -2.4338162727480170e-02  -5.4620151176057542e-02  -9.0428063853103063e-02  -1.3010161315739299e-01  -1.7512717895581340e-01  -2.2621575496535412e-01  -2.8605893435469604e-01  -3.5484751206397563e-01  -4.3189243401647681e-01  -5.1864627501680194e-01  -6.1845965437387218e-01  -7.3223121918372935e-01  -8.5946712355075749e-01  0.0000000000000000e+00  5.3781438311526497e-05  3.8207734869699932e-04  1.2493016343985953e-03  2.8185607896883385e-03  5.1964488462058469e-03  8.4383653978668642e-03  1.2540450274957954e-02  1.7462326229886964e-02  2.2892430645697726e-02  3.0313550606516079e-02  3.9785060989429043e-02  4.4509794687142168e-02  4.1947331027204694e-02  3.6844401530007356e-02  2.9393331430738634e-02  1.4455249320026259e-02  -5.9532929241942643e-03  -2.8749069517795510e-02  -5.6080208697008790e-02  -8.8277908379659764e-02  -1.2564154392537075e-01  -1.6826076205586285e-01  -2.1661163986963317e-01  -2.7181725759025466e-01  -3.3466323007422927e-01  -4.0589430289486206e-01  -4.8629937110249188e-01  -5.7654243905886149e-01  -6.7756103849727778e-01  -7.9120997629256573e-01  -9.1235199045972992e-01  0.0000000000000000e+00  1.0462921572529688e-04  5.1513201107387268e-04  1.3975942013360802e-03  2.8721579923753496e-03  5.0538436447282939e-03  8.1091008968368124e-03  1.2118978571625257e-02  1.7158643728962118e-02  2.4091663565224762e-02  2.8660774318798665e-02  2.9618143144133351e-02  2.9292677417881406e-02  2.4655553775772325e-02  1.6182973799749291e-02  4.5141945831824841e-03  -1.1562333543159206e-02  -3.2080064055881125e-02  -5.6956010765397705e-02  -8.6168516170430975e-02  -1.2019780155913994e-01  -1.5937276791537874e-01  -2.0407165609477232e-01  -2.5484837288788631e-01  -3.1241014031120196e-01  -3.7752741676976315e-01  -4.5099969215028268e-01  -5.3364539791658039e-01  -6.2624384536014310e-01  -7.2909439815230270e-01  -8.4476575334536375e-01  -9.7115052306746297e-01  0.0000000000000000e+00  9.6047444506348217e-05  5.3006389443354090e-04  1.4365036746117688e-03  2.8282289919798302e-03  4.8094729610958656e-03  7.6244447873494697e-03  1.1994550741536873e-02  1.7468061674215121e-02  2.3332801109428845e-02  2.3609834220895611e-02  1.8785824888461894e-02  1.4070382324788369e-02  7.1109076259030461e-03  -3.2110373537906009e-03  -1.7192882765220387e-02  -3.5031932129070478e-02  -5.7014969068075745e-02  -8.3299441412590117e-02  -1.1408666657311520e-01  -1.4966402413037969e-01  -1.9039965836291992e-01  -2.3671902387563376e-01  -2.8914728033434312e-01  -3.4831311763207085e-01  -4.1494095379225138e-01  -4.8984745674978475e-01  -5.7396131058119637e-01  -6.6835155167615856e-01  -7.7448659732120562e-01  -8.9429993604267954e-01  -1.0276958852313363e+00  0.0000000000000000e+00  9.4517540070579502e-05  5.7391121617419842e-04  1.5387183924895518e-03  2.9056060305366490e-03  4.6375784036482006e-03  6.9949860123669008e-03  1.0681059568524769e-02  1.4430249620662250e-02  1.5712835860332574e-02  1.3122036640189117e-02  7.6489949041988175e-03  5.5983498153415641e-04  -8.8192016547644081e-03  -2.1153919409550661e-02  -3.6883657520323299e-02  -5.6324203353686646e-02  -7.9730993149511403e-02  -1.0735072147145180e-01  -1.3944009470891208e-01  -1.7629556361132076e-01  -2.1826843895711323e-01  -2.6577416884535893e-01  -3.1930391104158801e-01  -3.7943902216375530e-01  -4.4686601705110074e-01  -5.2240845056028307e-01  -6.0709556011924282e-01  -7.0232787986436751e-01  -8.1020000355841526e-01  -9.3355600857907617e-01  -1.0743014592483555e+00  0.0000000000000000e+00  2.8841452989094663e-04  1.0233681134043321e-03  1.9181332725226601e-03  3.2894751021128026e-03  5.2699040430152309e-03  6.5752710019743709e-03  7.4726376105016630e-03  7.8070814180177979e-03  6.2211824934329035e-03  2.5495509742184301e-03  -3.5691974873174742e-03  -1.2174602220646865e-02  -2.3287515837853261e-02  -3.7282486967398207e-02  -5.4533682793278207e-02  -7.5356049925089680e-02  -1.0002945745507642e-01  -1.2882059999667583e-01  -1.6200377769662294e-01  -1.9987711446895773e-01  -2.4277595675028918e-01  -2.9108511030174949e-01  -3.4525161520293957e-01  -4.0580138435414559e-01  -4.7336561596159615e-01  -5.4872900842169448e-01  -6.3292451830622021e-01  -7.2741767133821877e-01  -8.3446696062859416e-01  -9.5814024416497556e-01  -1.1018397318728030e+00  0.0000000000000000e+00  1.1933004613942236e-03  2.9640883395674190e-03  3.2520354596520854e-03  3.5864110434399533e-03  4.8091444912097088e-03  4.8045477835774054e-03  3.6403356115593324e-03  1.9084556823819134e-03  -1.3372085827476872e-03  -6.5324802231560425e-03  -1.3932911954391614e-02  -2.3755938942046501e-02  -3.6209216985982881e-02  -5.1545187256524606e-02  -7.0065018248127525e-02  -9.2062567546837198e-02  -1.1781488121443850e-01  -1.4759098246355618e-01  -1.8166313559200198e-01  -2.2031753764315676e-01  -2.6386426965363718e-01  -3.1264736450729502e-01  -3.6705664359373169e-01  -4.2754437281595892e-01  -4.9465231616556365e-01  -5.6905906738999179e-01  -6.5166132670349342e-01  -7.4371171009552839e-01  -8.4705555301857471e-01  -9.6533950549270542e-01  -1.1061387522916222e+00  0.0000000000000000e+00  1.2731110343697934e-03  3.2629331447252912e-03  3.5416384213531084e-03  3.0450093754208272e-03  2.6599033198234359e-03  1.6487996345458857e-03  -2.9164694961915242e-04  -3.4266604740907595e-03  -8.0177454585881706e-03  -1.4439249021378940e-02  -2.2986340013210052e-02  -3.3910659284930443e-02  -4.7456139604678219e-02  -6.3875244679343399e-02  -8.3433819859180386e-02  -1.0640171926976183e-01  -1.3304348705304198e-01  -1.6361862606834471e-01  -1.9838643434240383e-01  -2.3761186688714336e-01  -2.8157145537077505e-01  -3.3055975845594349e-01  -3.8489758185312023e-01  -4.4494418076071834e-01  -5.1111733496206779e-01  -5.8392694225738806e-01  -6.6402795949457682e-01  -7.5228671962409077e-01  -8.4988347013130927e-01  -9.5735136098611795e-01  -1.0854574582167800e+00  0.0000000000000000e+00  3.2001450253162566e-04  1.3716634426019030e-03  2.0860350046368148e-03  1.6813387240915188e-03  5.9858358743600476e-04  -1.2284655633774653e-03  -4.0531519427723737e-03  -8.1327981428620435e-03  -1.3736528882716106e-02  -2.1146333211577523e-02  -3.0642029640279761e-02  -4.2484500318211181e-02  -5.6925124220569445e-02  -7.4214682105241278e-02  -9.4605947971228316e-02  -1.1835197310919410e-01  -1.4570256063870246e-01  -1.7690265069595829e-01  -2.1219310357458604e-01  -2.5181256028690158e-01  -2.9599936663004167e-01  -3.4499349626722425e-01  -3.9903919317196085e-01  -4.5838948691495363e-01  -5.2331441675130641e-01  -5.9411612748850984e-01  -6.7115325168044748e-01  -7.5488109250879865e-01  -8.4584252251522662e-01  -9.4457542871408851e-01  -1.0563876218723598e+00  0.0000000000000000e+00  1.5284269765131881e-04  6.2775282517248956e-04  8.1773323575836071e-04  1.3614532412575104e-04  -1.3756858625066540e-03  -3.7856925576591214e-03  -7.2746978858901322e-03  -1.2072437153862910e-02  -1.8427145646369436e-02  -2.6595610837289063e-02  -3.6836772827918092e-02  -4.9405467712413303e-02  -6.4551315411646312e-02  -8.2520801658016313e-02  -1.0355830808626593e-01  -1.2790522904606585e-01  -1.5579807660558070e-01  -1.8746647455756710e-01  -2.2313163038106806e-01  -2.6300502483697336e-01  -3.0728660258317197e-01  -3.5616194259783474e-01  -4.0979842474942935e-01  -4.6834044902225319e-01  -5.3190372803276253e-01  -6.0056955132000889e-01  -6.7438422284359756e-01  -7.5337043885662758e-01  -8.3767213184950406e-01  -9.2843427272768042e-01  -1.0273407758744701e+00  0.0000000000000000e+00  1.9625529712444297e-04  2.8630328658348580e-04  -1.4412359824227832e-04  -1.1734028077069088e-03  -3.0276902158568888e-03  -5.8473231300772682e-03  -9.8080877811555396e-03  -1.5120473033190883e-02  -2.2015303800624879e-02  -3.0734193538550419e-02  -4.1523290392518029e-02  -5.4629224282354394e-02  -7.0296569048986318e-02  -8.8766848887832192e-02  -1.1027782470648982e-01  -1.3506222055087777e-01  -1.6334576795572020e-01  -1.9534466948874438e-01  -2.3126252995998531e-01  -2.7128663521847862e-01  -3.1558295208294779e-01  -3.6428895757551782e-01  -4.1750358254951381e-01  -4.7527325894809713e-01  -5.3757228789052891e-01  -6.0427582793110224e-01  -6.7512491778645201e-01  -7.4970337227880757e-01  -8.2747259017370300e-01  -9.0787457782148795e-01  -9.9008393275743845e-01  0.0000000000000000e+00  2.7234393016595851e-05  -1.3885658600271925e-04  -8.0118952031295603e-04  -2.0956113436440315e-03  -4.1965069385609139e-03  -7.2862962163561997e-03  -1.1551176421587671e-02  -1.7195659760202268e-02  -2.4440733365603561e-02  -3.3518420239522784e-02  -4.4666907621400215e-02  -5.8126697763596871e-02  -7.4137769441549511e-02  -9.2937462744897378e-02  -1.1475873115219526e-01  -1.3982826457320166e-01  -1.6836413680709300e-01  -2.0057269185368706e-01  -2.3664441380699319e-01  -2.7674852631455338e-01  -3.2102564424432445e-01  -3.6957728375764337e-01  -4.2245091389364076e-01  -4.7961862515519493e-01  -5.4094597751976425e-01  -6.0614592625111552e-01  -6.7471182553149167e-01  -7.4580919543566226e-01  -8.1806491993508734e-01  -8.8934283985177121e-01  -9.5679048128750865e-01  0.0000000000000000e+00  -7.0317370247154724e-05  -3.8679676486420562e-04  -1.1575150509771312e-03  -2.5701334571528820e-03  -4.7983492668763296e-03  -8.0239496168040252e-03  -1.2438579425789810e-02  -1.8246068442118603e-02  -2.5663411347723812e-02  -3.4918144934786302e-02  -4.6244502609085067e-02  -5.9879811670858769e-02  -7.6061480700529149e-02  -9.5024510078305091e-02  -1.1699929482837322e-01  -1.4220939174363195e-01  -1.7086887945327650e-01  -2.0317889343461770e-01  -2.3932293242673097e-01  -2.7946058433992466e-01  -3.2371892720198925e-01  -3.7218023907255565e-01  -4.2486435586095472e-01  -4.8170320766619174e-01  -5.4250305099981422e-01  -6.0688707516245255e-01  -6.7420555610202682e-01  -7.4338769134238880e-01  -8.1269716570697381e-01  -8.7815927594028609e-01  -9.3614299627364317e-01  0.0000000000000000e+00  -7.0317383059846373e-05  -3.8679681905367874e-04  -1.1575151875424308e-03  -2.5701337349158439e-03  -4.7983497605487771e-03  -8.0239504138676435e-03  -1.2438580622876555e-02  -1.8246070143199351e-02  -2.5663413663495054e-02  -3.4918147983015714e-02  -4.6244506516156317e-02  -5.9879816574934311e-02  -7.6061486757047991e-02  -9.5024517468494302e-02  -1.1699930377141990e-01  -1.4220940251327077e-01  -1.7086889239984349e-01  -2.0317890901431351e-01  -2.3932295124043765e-01  -2.7946060718468890e-01  -3.2371895513898391e-01  -3.7218027351475402e-01  -4.2486439868358583e-01  -4.8170326132584229e-01  -5.4250311864402112e-01  -6.0688716054968550e-01  -6.7420566315297248e-01  -7.4338782330413711e-01  -8.1269732321018529e-01  -8.7815945796814177e-01  -9.3614313170393171e-01  0.0000000000000000e+00  2.7234367148538792e-05  -1.3885671534856131e-04  -8.0118987807551443e-04  -2.0956121072053862e-03  -4.1965083377534414e-03  -7.2862985169133542e-03  -1.1551179914963154e-02  -1.7195664758917949e-02  -2.4440740201604999e-02  -3.3518429265185390e-02  -4.4666919213413751e-02  -5.8126712331545899e-02  -7.4137787443483705e-02  -9.2937484712293392e-02  -1.1475875772606578e-01  -1.3982829655308876e-01  -1.6836417521608488e-01  -2.0057273802399733e-01  -2.3664446949306539e-01  -2.7674859384288181e-01  -3.2102572671165924e-01  -3.6957738529172812e-01  -4.2245103998743105e-01  -4.7961878307854533e-01  -5.4094617672599732e-01  -6.0614617857718889e-01  -6.7471214424346249e-01  -7.4580959253055412e-01  -8.1806539831666103e-01  -8.8934337199458502e-01  -9.5679086713032713e-01  0.0000000000000000e+00  1.9625528494332826e-04  2.8630317374427240e-04  -1.4412401516432827e-04  -1.1734038427243200e-03  -3.0276922720253079e-03  -5.8473266605543629e-03  -9.8080932765981683e-03  -1.5120481015999896e-02  -2.2015314823930019e-02  -3.0734208187307273e-02  -4.1523309287389169e-02  -5.4629248090236240e-02  -7.0296598506004199e-02  -8.8766884839466792e-02  -1.1027786816643552e-01  -1.3506227278098790e-01  -1.6334583057034674e-01  -1.9534474459041939e-01  -2.3126262031662581e-01  -2.7128674449708234e-01  -3.1558308516044636e-01  -3.6428912095540450e-01  -4.1750378492598073e-01  -4.7527351196516576e-01  -5.3757260714629540e-01  -6.0427623402061936e-01  -6.7512543707238148e-01  -7.4970403398893770e-01  -8.2747341854403877e-01  -9.0787556456891971e-01  -9.9008505950530190e-01  0.0000000000000000e+00  1.5284270617882970e-04  6.2775286526657180e-04  8.1773306101125742e-04  1.3614439266188886e-04  -1.3756881506746300e-03  -3.7856968575269122e-03  -7.2747048913674771e-03  -1.2072447598686711e-02  -1.8427160305196116e-02  -2.6595630527534934e-02  -3.6836798406876300e-02  -4.9405500083055928e-02  -6.4551355548070108e-02  -8.2520850659864600e-02  -1.0355836726014489e-01  -1.2790530001451847e-01  -1.5579816144614778e-01  -1.8746657597815275e-01  -2.2313175194452095e-01  -2.6300517125420247e-01  -3.0728678010372690e-01  -3.5616215954349145e-01  -4.0979869226805415e-01  -4.6834078219994968e-01  -5.3190414757552096e-01  -6.0057008615712260e-01  -6.7438491368160169e-01  -7.5337134477467815e-01  -8.3767333234859431e-01  -9.2843589991131903e-01  -1.0273430822363316e+00  0.0000000000000000e+00  3.2001468123853778e-04  1.3716640141333584e-03  2.0860355771441653e-03  1.6813384648261783e-03  5.9858167840105608e-04  -1.2284699792984926e-03  -4.0531597703014066e-03  -8.1328103225480654e-03  -1.3736546411547455e-02  -2.1146357146047297e-02  -3.0642061073602622e-02  -4.2484540364231757e-02  -5.6925174036277261e-02  -7.4214742961753871e-02  -9.4606021359271167e-02  -1.1835206087837306e-01  -1.4570266516535330e-01  -1.7690277508533123e-01  -2.1219325190909749e-01  -2.5181273794606929e-01  -2.9599958071494409e-01  -3.4499375618550732e-01  -3.9903951148992617e-01  -4.5838988067687914e-01  -5.2331490965868421e-01  -5.9411675364848482e-01  -6.7115406274456069e-01  -7.5488217261884860e-01  -8.4584404397078639e-01  -9.4457764036893987e-01  -1.0563908870556022e+00  0.0000000000000000e+00  1.2731116529788112e-03  3.2629348922640425e-03  3.5416404036401217e-03  3.0450104770286908e-03  2.6599025958144104e-03  1.6487959291905934e-03  -2.9165474112080407e-04  -3.4266734782308194e-03  -8.0177648822627855e-03  -1.4439276196571017e-02  -2.2986376291115228e-02  -3.3910705965181150e-02  -4.7456197959636869e-02  -6.3875316043069882e-02  -8.3433905769667305e-02  -1.0640182164207962e-01  -1.3304360837567281e-01  -1.6361876961304303e-01  -1.9838660440645089e-01  -2.3761206910506194e-01  -2.8157169712084495e-01  -3.3056004942008471e-01  -3.8489793482898110e-01  -4.4494461292555065e-01  -5.1111786998064934e-01  -5.8392761402699511e-01  -6.6402881947805870e-01  -7.5228785352987759e-01  -8.4988504939106269e-01  -9.5735345954604012e-01  -1.0854601895104721e+00  0.0000000000000000e+00  1.1933013381911631e-03  2.9640907479027826e-03  3.2520388132450061e-03  3.5864141944276602e-03  4.8091459910244386e-03  4.8045457423256787e-03  3.6403286301144749e-03  1.9084429099935007e-03  -1.3372286823741170e-03  -6.5325094203229350e-03  -1.3932951913512901e-02  -2.3755991126852515e-02  -3.6209282718833710e-02  -5.1545267778766758e-02  -7.0065114968842809e-02  -9.2062682264884538e-02  -1.1781501633309299e-01  -1.4759114119193240e-01  -1.8166332213929870e-01  -2.2031775749207211e-01  -2.6386452990647979e-01  -3.1264767435884927e-01  -3.6705701497873122e-01  -4.2754482132317129e-01  -4.9465286242956552e-01  -5.6905973939664367e-01  -6.5166216384886066e-01  -7.4371277193672602e-01  -8.4705691404999350e-01  -9.6534104601973791e-01  -1.1061402920945476e+00  0.0000000000000000e+00  2.8841522004578279e-04  1.0233699853638427e-03  1.9181361709138681e-03  3.2894781986860205e-03  5.2699058593143810e-03  6.5752695344210689e-03  7.4726318284033698e-03  7.8070701602939562e-03  6.2211631734890825e-03  2.5495212891993337e-03  -3.5692397897239005e-03  -1.2174658842908741e-02  -2.3287587954305421e-02  -3.7282575503195227e-02  -5.4533788817962330e-02  -7.5356174897352746e-02  -1.0002960350402947e-01  -1.2882077007215931e-01  -1.6200397565611838e-01  -1.9987734529306148e-01  -2.4277622678968092e-01  -2.9108542767746015e-01  -3.4525199022763775e-01  -4.0580182994936359e-01  -4.7336614796442289e-01  -5.4872964582832806e-01  -6.3292528334851195e-01  -7.2741858782139501e-01  -8.3446803604649544e-01  -9.5814137086993578e-01  -1.1018407846840872e+00  0.0000000000000000e+00  9.4517923154205453e-05  5.7391224076083183e-04  1.5387197025223962e-03  2.9056070569920441e-03  4.6375782643667575e-03  6.9949833679149110e-03  1.0681054683069232e-02  1.4430241231330111e-02  1.5712819771903197e-02  1.3122008576299821e-02  7.6489514228767755e-03  5.5977460365988366e-04  -8.8192796097760137e-03  -2.1154015327242603e-02  -3.6883771837562231e-02  -5.6324336890905324e-02  -7.9731147573562478e-02  -1.0735089938233443e-01  -1.3944029948811987e-01  -1.7629579947200422e-01  -2.1826871111422538e-01  -2.6577448395258407e-01  -3.1930427750920692e-01  -3.7943945008575131e-01  -4.4686651746331502e-01  -5.2240903404940753e-01  -6.0709623376627442e-01  -7.0232864141216789e-01  -8.1020082802988891e-01  -9.3355681315368466e-01  -1.0743021566933881e+00  0.0000000000000000e+00  9.6047595626559939e-05  5.3006424878304886e-04  1.4365039418582162e-03  2.8282286978822593e-03  4.8094714521946368e-03  7.