<?xml version="1.0"?>
<VTKFile type="UnstructuredGrid"  version="0.1"  >
<UnstructuredGrid>
<Piece  NumberOfPoints="7064" NumberOfCells="14124">
<Points>
<DataArray  type="Float64"  NumberOfComponents="3"  format="ascii">1383.930908203125 157.9948425292969 20.48420906066895  1390.282470703125 159.9792022705078 0.4445314407348633  1377.120483398438 162.6904602050781 0.7131099700927734  1377.579223632812 156.0104675292969 40.52376556396484  1369.997314453125 160.8653717041016 20.54953575134277  1375.9931640625 162.9064025878906 0.7344484329223633  1364.875854492188 152.041748046875 80.60288238525391  1363.251586914062 159.0174255371094 40.61698913574219  1356.61962890625 163.1818084716797 20.5582389831543  1364.5400390625 164.8770599365234 0.9295940399169922  1361.586669921875 165.307373046875 0.9721517562866211  1339.46923828125 144.1042938232422 160.7611846923828  1349.802001953125 155.319580078125 80.77132415771484  1349.4541015625 161.4407958984375 40.64881896972656  1343.026489257812 164.8666229248047 20.50209045410156  1351.802490234375 166.4685516357422 1.087188720703125  1345.341552734375 167.0083160400391 1.140594482421875  1288.655883789062 128.2293701171875 321.0777587890625  1322.90283203125 147.9239196777344 161.0799407958984  1335.20654296875 157.9549713134766 80.86878204345703  1335.382934570312 163.1960754394531 40.60995483398438  1328.370971679688 165.8536987304688 20.37417984008789  1332.992065429688 166.6479187011719 10.59556007385254  1316.969360351562 166.8668518066406 10.45715808868408  1322.659545898438 167.6214141845703 1.201391220092773  1313.374755859375 167.4154815673828 1.180887222290039  1237.842651367188 112.3544540405273 481.3944091796875  1269.1044921875 133.1325988769531 321.6972351074219  1306.711547851562 150.9832916259766 161.30859375  1320.22119140625 159.8492126464844 80.88380432128906  1320.161010742188 164.2096862792969 40.49253463745117  1311.876342773438 166.0673370361328 20.16675567626953  1298.665405273438 166.2312164306641 10.23244857788086  1304.997436523438 167.0101776123047 1.140832901000977  1301.601928710938 166.7561187744141 1.115679740905762  1187.029418945312 96.47953796386719 641.7109985351562  1215.306030273438 118.3412704467773 482.314453125  1249.721557617188 137.0399627685547 322.1882629394531  1289.8974609375 153.155517578125 161.4314270019531  1303.907958984375 160.9140014648438 80.80625915527344  1302.980590820312 164.3988647460938 40.28737640380859  1293.0498046875 165.3983306884766 19.86861228942871  1289.635131835938 165.4004211425781 10.06865501403809  1296.265869140625 166.1996765136719 1.060605049133301  1290.604370117188 165.2843475341797 0.9698867797851562  1280.920288085938 160.7789916992188 0.5238056182861328  1280.584716796875 159.9792022705078 0.4445314407348633  1274.203247070312 159.2206115722656 8.10539722442627  1281.113159179688 161.0766143798828 0.5532503128051758  1274.325073242188 160.663330078125 9.393811225891113  1273.742309570312 159.9172210693359 9.299159049987793  1268.098510742188 159.7371978759766 18.89395713806152  1267.504516601562 158.9846496582031 18.78940963745117  1257.645385742188 157.7772674560547 38.9810791015625  1257.061767578125 157.0101623535156 38.8743896484375  1237.0625 153.8426055908203 79.30522918701172  1236.504516601562 153.0461273193359 79.19633483886719  1195.896850585938 145.9732971191406 159.9533538818359  1195.390258789062 145.1180419921875 159.8402252197266  1154.731323242188 138.1039581298828 240.6015319824219  1154.27587890625 137.1899719238281 240.4841766357422  1113.565551757812 130.2346496582031 321.2496643066406  1113.16162109375 129.2618865966797 321.1280822753906  1072.400024414062 122.3653182983398 401.8978576660156  1072.16748046875 121.8558044433594 401.835693359375  1031.234375 114.4959945678711 482.5459594726562  1031.021728515625 113.956901550293 482.4817199707031  990.0687255859375 106.6266708374023 563.1941528320312  989.8759155273438 106.0580062866211 563.1277465820312  948.903076171875 98.75735473632812 643.84228515625  948.7301025390625 98.15910339355469 643.7738037109375  1281.477172851562 161.5198211669922 0.5971193313598633  1282.306396484375 162.2525634765625 0.6697177886962891  1276.117553710938 161.9885711669922 9.566426277160645  1269.929809570312 161.0757598876953 19.08636093139648  1259.489624023438 159.14599609375 39.17801284790039  1238.922607421875 155.2721252441406 79.50615692138672  1197.788452148438 147.5243682861328 160.1625061035156  1156.654296875 139.7765960693359 240.8189239501953  1155.531005859375 138.9656677246094 240.7130584716797  1115.520263671875 132.0288391113281 321.4752807617188  1114.359619140625 131.1565399169922 321.3653564453125  1074.385986328125 124.2810897827148 402.1316223144531  1073.188232421875 123.3474197387695 402.0176391601562  1033.251831054688 116.5333251953125 482.7880249023438  1032.016723632812 115.5382995605469 482.6700134277344  992.1177368164062 108.7855682373047 563.4443969726562  990.8453979492188 107.7291717529297 563.3223266601562  950.983642578125 101.0378112792969 644.1007690429688  949.6739501953125 99.9200439453125 643.974609375  1283.200927734375 162.8339691162109 0.7272958755493164  1284.699951171875 163.5686950683594 0.800013542175293  1281.825805664062 164.0355072021484 9.851455688476562  1275.77392578125 163.1504669189453 19.41072845458984  1265.476806640625 161.2831420898438 39.51084518432617  1245.174926757812 157.5351104736328 79.84638214111328  1204.570922851562 150.0390625 160.5174560546875  1163.966918945312 142.5429992675781 241.1885833740234  1159.788208007812 141.2522430419922 241.0141754150391  1123.362915039062 135.0469512939453 321.8596496582031  1118.847900390625 133.629638671875 321.6782836914062  1082.758911132812 127.550895690918 402.5307312011719  1077.907592773438 126.0070266723633 402.3423156738281  1042.154907226562 120.0548400878906 483.2018127441406  1036.96728515625 118.384407043457 483.0064086914062  1001.550903320312 112.5587844848633 563.8728637695312  996.0269165039062 110.7617950439453 563.6705322265625  960.9468994140625 105.0627288818359 644.5439453125  955.0866088867188 103.1391830444336 644.3345947265625  1286.038208007812 164.0781097412109 0.8504390716552734  1288.713500976562 164.8576507568359 0.9276866912841797  1283.780639648438 164.5427398681641 19.66667175292969  1273.749389648438 162.7370910644531 39.77441787719727  1253.957885742188 159.1133880615234 80.11544036865234  1214.374755859375 151.865966796875 160.7974700927734  1174.791870117188 144.6185302734375 241.4795227050781  1135.208740234375 137.3711090087891 322.1615600585938  1095.625732421875 130.1236724853516 402.8435974121094  1056.042724609375 122.8762512207031 483.5255737304688  1016.459716796875 115.6288223266602 564.2076416015625  976.8766479492188 108.3814010620117 644.8897094726562  1297.75634765625 166.3783874511719 1.078248023986816  1328.053833007812 167.6340942382812 1.202583312988281  1332.82373046875 167.5695343017578 1.196146011352539  1338.090942382812 167.4062042236328 1.180052757263184  1357.697998046875 165.8184661865234 1.022815704345703  990.1259155273438 104.2816543579102 562.91943359375  949.1109008789062 96.29653167724609 643.55908203125  989.900634765625 104.8855514526367 562.9904174804688  948.829833984375 96.92871856689453 643.6322021484375  989.818603515625 105.4776458740234 563.0598754882812  948.7042846679688 97.54956817626953 643.7037963867188  1031.140869140625 112.2667770385742 482.27978515625  1030.971557617188 112.8423843383789 482.3486328125  1030.932861328125 113.4057312011719 482.4159240722656  1072.155883789062 120.2518997192383 401.6401062011719  1072.042358398438 120.7992172241211 401.7068786621094  1072.047241210938 121.3338088989258 401.7720336914062  1113.1708984375 128.2370300292969 321.0005187988281  1113.113037109375 128.7560424804688 321.0650634765625  1130.048095703125 131.5228271484375 287.8179626464844  1146.071044921875 134.6422882080078 256.3153381347656  1154.183837890625 136.7128753662109 240.4232635498047  1154.185913085938 136.2221374511719 240.3608551025391  1161.238647460938 137.5952453613281 226.4942474365234  1175.55029296875 140.3815460205078 198.3560943603516  1189.00537109375 143.0010833740234 171.9022369384766  1195.254638671875 144.6697082519531 159.7814636230469  1195.200805664062 144.2072601318359 159.72119140625  1201.603149414062 145.4537200927734 147.1336517333984  1213.343627929688 147.7394409179688 124.0506134033203  1224.227416992188 149.8583831787109 102.6520156860352  1234.256469726562 151.8109283447266 82.93378448486328  1236.2158203125 152.1923828125 79.08153533935547  1243.436157226562 153.5980987548828 64.88567352294922  1251.778930664062 155.2223358154297 48.48295593261719  1256.723266601562 156.1849517822266 38.76173400878906  1259.317138671875 156.68994140625 33.66196060180664  1266.236328125 158.0168762207031 20.26152610778809  1267.14404296875 158.1735687255859 18.67914199829102  1273.38671875 159.1123352050781 9.198784828186035  1161.507690429688 103.5499420166016 642.9317016601562  1135.741577148438 109.1532745361328 643.9476318359375  1192.7314453125 123.0966186523438 483.0679321289062  1122.2138671875 111.3121795654297 644.3658447265625  1168.602783203125 126.3806915283203 483.6220092773438  1229.250244140625 139.7680969238281 322.5267639160156  1107.955444335938 112.993278503418 644.71728515625  1092.751831054688 114.1599578857422 644.9968872070312  1155.473510742188 127.3978271484375 483.8141784667969  1206.390014648438 141.1399078369141 322.6890563964844  1271.401977539062 154.3226318359375 161.4338684082031  1076.366088867188 114.7744445800781 645.1993408203125  1141.378051757812 127.9571762084961 483.9441833496094  1058.633544921875 114.8013534545898 645.3197021484375  1126.162353515625 128.0310516357422 484.0081787109375  1179.900268554688 140.9734649658203 322.6510925292969  1250.231811523438 154.3594207763672 161.3003540039062  1285.397705078125 161.0523834228516 80.625  1039.237182617188 114.2015686035156 645.3525390625  1109
[...]
<PointData  Vectors="t"> 
<DataArray  type="Float64"  Name="t"  NumberOfComponents="3" format="ascii">-9.8942368669084992e-04 7.9363952046443398e-04 1.7205908057098569e-04  -1.0869072336848154e-03 3.2561075943032960e-04 -2.0678234419422613e-04  -8.9360814336091759e-04 4.2158150059641591e-04 -1.6805226075483699e-04  -7.7989465179105868e-04 1.7559997139306738e-04 -2.1028592051097761e-04  -1.1879893651465712e-03 -3.1754875808234941e-04 -1.9727265964331744e-04  -8.1120881000987764e-04 3.5163364457087097e-04 -1.5972579262050129e-04  -1.0223220119178666e-03 6.4343256558953179e-04 -6.4604389825126613e-05  -1.0483289570099798e-03 9.3862208827295303e-04 7.6274824527774502e-05  -9.1052980264958990e-04 -6.4543289261783504e-04 -2.5352861378031779e-04  -1.1108225295824988e-03 3.7561749114670086e-04 -2.3584106109836734e-05  -9.6746779849208524e-04 6.1817392998427272e-04 -9.7160752926334789e-05  -1.1322144487256544e-03 5.2949503153340333e-04 9.2370243332257333e-06  -6.9655482905013892e-04 4.7315051459326436e-04 -6.6471842958599347e-05  -5.9055054023305633e-04 3.2283731630304595e-03 2.9912382040406910e-04  -7.5975284882955942e-04 4.1861902188309961e-03 4.1789127113339009e-04  -8.9365804776167859e-04 4.2498073599109417e-04 -7.5695375861641601e-05  -9.6743895617334248e-04 4.7162317209633269e-04 -8.9544865546045707e-05  -7.4696354400935114e-04 3.7619212222708112e-04 -8.2270260791625095e-05  -1.2384703820075406e-03 -2.9636941003564974e-04 -2.3649751500834840e-04  -2.0245916227152193e-03 -4.5450563666604308e-03 -7.2494927126509276e-04  -1.0169452834235975e-03 -2.7912432189150364e-03 -3.3095784097822239e-04  -9.5414068782847703e-04 3.8043300197809684e-04 -1.7728132510220395e-04  -9.4216845949813969e-04 -2.1245433158661531e-04 -6.0683116996139829e-05  -9.6935408939373511e-04 -2.2471808169759319e-03 -3.1800385062374974e-04  -9.7497978663836345e-04 4.7564946285427072e-04 -1.8462766164828513e-04  -9.0564079688586403e-04 4.1704427299772240e-04 1.1644134192196529e-04  -1.0536236937423839e-03 3.9989908718302041e-04 -1.1022191635901735e-04  -9.0275791298192228e-04 1.5273199502985368e-03 2.1742258452252903e-04  1.6573315098807576e-05 4.5188491505377725e-03 6.2206274211060370e-04  -7.6941809471608015e-04 2.0079575056490256e-03 -5.5749092232274760e-05  -5.5544662521020112e-04 9.8651740525522637e-03 7.2580626678985221e-04  -1.1920915288003958e-03 3.2892729755111694e-03 -5.7052522497456612e-05  -1.0214341485101897e-03 -2.5075582638180806e-04 2.5693768848218214e-05  -9.2402320445318328e-04 4.7460767842630726e-04 -2.1838408536333946e-04  -1.0396937024164477e-03 4.4533539592006956e-04 -5.4656442087328184e-05  -1.0768348438802968e-03 7.5969288987899955e-04 7.1987543014008731e-05  -9.8094793812243241e-04 -5.0204587225788485e-04 -1.8193486978943302e-04  -9.3188383240659580e-04 7.2618406349472212e-04 -2.2972091377979840e-04  -8.4474966137741746e-04 4.2411132074043571e-03 1.1714072980716002e-04  -1.4557506986341829e-03 -9.4205213615988458e-03 -1.2062884839166156e-03  -9.3263362112214958e-04 1.9426444266113689e-03 1.7786831557576734e-04  -8.7740719699833298e-04 -8.2943936401300687e-04 -7.7118752273326900e-05  -1.0349677426578160e-03 6.7032378679969355e-04 -7.2201914037545761e-05  -9.7396549393064143e-04 5.6071854183113539e-04 -4.9361034866100178e-05  -9.8056279130839677e-04 4.1637742540836332e-04 -8.7566255251468109e-05  -9.6860558241572566e-04 4.9779002919438662e-04 -6.1318813597616590e-05  -9.5985453897916718e-04 5.0885451729179153e-04 -1.0185150510768599e-04  -1.0088965837152435e-03 4.8802775703693556e-04 -4.3051420905808239e-05  -1.0128527882139035e-03 5.1862817093882867e-04 -1.9685678456673946e-04  -1.1464715631659675e-03 6.0246792084976935e-04 -1.0719912034340363e-04  -1.1194796081614785e-03 5.5824049148357248e-04 -9.3590994506492772e-05  -1.0620246050513193e-03 5.7422382949715034e-04 -5.3718633289027829e-05  -1.0726736137481694e-03 5.0659198485383426e-04 3.6565997879649788e-05  -8.9352969532368340e-04 3.8210453234218907e-04 7.2568807877497715e-05  -9.6786012720242987e-04 4.8769379431965875e-04 -4.1195307055832821e-05  -1.1263202232376034e-03 5.3715324280170654e-04 8.0495513328068821e-05  -9.4557168026069356e-04 4.8954372648375027e-04 -1.1157044740791764e-04  -1.0232425199981278e-03 5.0531286135424244e-04 -5.1870810483992700e-05  -9.3334515023308186e-04 4.8270534607372555e-04 -6.5146905737695785e-05  -9.0804709121870158e-04 4.7247962087180133e-04 -8.8091803592401125e-05  -9.6937728976228220e-04 5.0621610643739620e-04 -1.2854407084557067e-04  -9.5310932864908987e-04 5.0411646949509220e-04 -6.1707351117280078e-05  -1.0218088534906242e-03 5.2254453027015429e-04 -1.3969109914695218e-04  -1.0218885996931132e-03 5.3595322627243236e-04 -1.5151266091876882e-04  -9.0753865140983541e-04 5.1470259016753693e-04 -1.1486793291833182e-04  -8.1654946208423163e-04 4.1370097078728257e-04 -2.8798297586038102e-05  -1.0471248638018224e-03 5.4098681848314197e-04 -1.4295398689863066e-04  -9.0950091963681770e-04 5.2778419490717710e-04 -1.0837356329493697e-04  -9.2828287491257392e-04 4.5883686396411115e-04 -1.4279630682989482e-04  -1.1379286429185102e-03 5.8455726382890478e-04 -1.7224408253235354e-04  -7.1550972479015663e-04 4.6683640626296380e-04 -1.2314795518120822e-05  -9.7750059585356491e-04 5.4037557871182873e-04 -2.7620701012462905e-05  -1.0225914566745415e-03 5.1734406669582810e-04 -1.5136391517497485e-04  -9.0876135027268435e-04 3.7268626551336688e-04 -3.2733620732548444e-05  -1.1777780737954112e-03 8.2487269225203156e-04 -9.6314324249154300e-05  -9.8431481390105508e-04 3.9088213003840084e-04 3.5101424814034422e-05  -7.9651169314620815e-04 2.1447211265895316e-04 4.3262190111871280e-05  -1.1905439225765090e-03 7.6152791839807950e-04 -3.6254478417970071e-05  -9.9565748278782778e-04 3.8091576780915378e-04 1.5471417391601947e-04  -9.3829517109245543e-04 4.3908241971079198e-04 3.1035795082865591e-05  -8.6813712278797483e-04 3.1213811201656714e-04 1.3627680707262833e-05  -9.2397858267632103e-04 4.2005316068115505e-04 -7.3771142745998433e-06  -1.1682818933711852e-03 7.7813627386038057e-04 -6.5307909434753243e-05  -1.0537560271474385e-03 6.2472180259310218e-04 -1.5556882319872519e-04  -9.2493175637647636e-04 4.3857052716748712e-04 -1.6784441551930016e-06  -9.3880179152235196e-04 5.0501406181935793e-04 -4.4844460621141611e-05  -8.2354695919485655e-04 3.6135001457204298e-04 -7.6431826638421560e-05  -8.2750747335849065e-04 3.8186238934038243e-04 -6.6022074016645920e-05  -1.0801678468152730e-03 6.8636636130377238e-04 -9.6013258402664070e-05  -1.0049939883540690e-03 5.6534175068711373e-04 -1.0755420260726404e-04  -9.8551237395884525e-04 5.2621300326877597e-04 -1.2694935709572615e-05  -9.7431543876568580e-04 5.7149397614137960e-04 -7.4850186701038991e-05  -8.4045077567640328e-04 -8.6418975626570239e-05 -3.0103153609797272e-05  -9.2303480804402111e-04 2.5269907699704920e-04 1.8936432948605388e-06  -1.4344875413456260e-03 2.0224878030996487e-03 -1.4723531952816110e-04  -5.7746112806991918e-04 -8.8500022135023961e-04 4.7367008957086675e-05  -8.7862437704706430e-04 5.4512286520496466e-05 6.0652150576310462e-05  -1.5798507783594514e-03 2.4040807688702750e-03 -1.4833059550007900e-04  -7.3781948395039377e-04 1.1836440506345905e-05 6.1233325540385042e-05  -3.4403006975816251e-04 -1.9252523228880378e-03 1.2294508819477110e-04  -9.1122464544840509e-04 1.9080021949755943e-04 6.8495109498991716e-05  -1.0038534353937608e-03 9.0915270790197303e-04 8.3156149034556866e-07  -1.4126927317591831e-03 1.2793300082367463e-03 4.2169267389852050e-05  -1.6755105072226736e-03 2.6829614281587014e-03 -7.4608640863584613e-05  -7.8202069762595648e-04 1.7794938752131492e-04 4.0213408950301719e-05  -2.9895564323294803e-04 -2.1848060800874619e-03 2.8884350052324844e-04  -7.8943585367228293e-04 6.2006478835749713e-05 4.8085552812253613e-05  -9.9711679185628295e-04 8.9756217863493071e-04 -7.8194814109192946e-06  -1.3563070293653521e-03 1.3217184405295475e-03 -1.3795536602105501e-04  -9.8224975304302153e-04 5.1581366723267791e-04 -2.2130076604639519e-05  -1.0132408754339943e-03 5.5125038353736645e-04 -9.1685185155115524e-05  -9.7473505147676383e-04 -4.7581504166404535e-04 -8.3808716698860599e-05  -1.2646841271924160e-03 3.1108310380632714e-03 -2.8254916261220732e-05  -6.3998347658501917e-04 -1.2643441317335810e-03 -7.4829136537658510e-06  -1.0033750320038645e-03 -5.0325398556678818e-04 -1.5799248694069900e-04  -1.3020303601689867e-03 3.1054552923967457e-03 4.9445695434485773e-05  -6.1451261318662463e-04 -1.2439846592832856e-03 6.5465313363498681e-05  -1.0322037811210140e-03 -2.8438258826929012e-04 -1.2941988129599032e-04  -1.3352671035524253e-03 3.1328649032290111e-03 8.1189157776187688e-05  -5.4552020357734007e-04 -1.3672689632080503e-03 2.0361358464014603e-05  -1.0196841804567904e-03 -4.6992243006513970e-04 -3.4141891723784769e-05  -9.5959559574178375e-04 4.9057157243492073e-04 -1.9030510609843951e-04  -9.0975811749672815e-04 4.2150927895374918e-04 -7.4335794826079870e-05  -9.5027693131135725e-04 4.6945289963005413e-04 -1.2430406520015069e-04  -9.6521700843144791e-04 5.6699345318356274e-04 -1.1455266712680452e-04  -1.1086220469789072e-03 4.7088157561180695e-04 -1.5534904651412291e-05  -9.6100269550706771e-04 4.5950816597237410e-04 -2.8140021781540158e-04  -6.6440489171290095e-04 5.7836830636197843e-04 -2.7333281975382602e-05  -8.4435469931458905e-04 5.0683098022250928e-04 -1.7274851193227196e-04  -9.7144140445551148e-04 4.7107937701436331e-04 -1.8711780027111063e-04  -7.8786439827664885e-04 5.1924012503390209e-04 -9.1649763621682613e-05  -1.0511799284970830e-03 4.8058615496726149e-04 -2.6524006922711582e-04  -8.5359513638873425e-04 5.1231721916546354e-04 -1.8994568304128384e-04  -8.9710176382292448e-04 5.0150136512046078e-04 -1.6592465431958351e-04  -8.0679273179356397e-04 4.7937475292574434e-04 -8.0135783705344996e-05  -8.6918320322662470e-04 5.0155316147962239e-04 -1.8419682116952880e-04  -8.3523149244229275e-04 4.9925700126746272e-04 -1.8996086948336693e-04  -1.0527628275657571e-03 5.0764161275612685e-04 -2.3268664800257476e-04  -8.9364945242724144e-04 4.9646905223355226e-04 -2.3227580542037609e-04  -9.3173650287895328e-04 5.0127811072578821e-04 -2.0145298669057432e-04  -8.9981755795334132e-04 5.0339438585563032e-04 -1.7498656286429686e-04  -9.2985855230670828e-04 4.9204507968613539e-04 -7.5215425955200681e-05  -9.3412886799567750e-04 4.9120703291975678e-04 -1.5325408301261858e-04  -9.1619936229851262e-04 4.9947428917294955e-04 -1.5488133798630693e-04  -9.3063233614777902e-04 4.9705990583305548e-04 -1.0159400335258296e-04  -9.2913531944214449e-04 4.9611762792000583e-04 -1.4492160461855022e-04  -9.3269204097035747e-04 4.9084057064705108e-04 -1.2261031540386396e-04  -9.7764791150370942e-04 5.0414410525523562e-04 -1.1926000580062590e-04  -9.3079760243793257e-04 4.9397363759140934e-04 -1.4946776651671685e-04  -9.4575655328000554e-04 4.9241244813817600e-04 -1.2007182774013096e-04  -9.2226334789528071e-04 4.9634269801939238e-04 -1.4782708893851913e-04  -9.3827076467610960e-04 4.9286426879738764e-04 -1.0889443923118422e-04  -9.2875923224523241e-04 4.9559437550102180e-04 -1.3598286261076967e-04  -9.2591134738815781e-04 4.9364526466163074e-04 -1.3101785783072338e-04  -9.3473275496860355e-04 4.9618823631681925e-04 -1.0944727371254796e-04  -9.6634088070341123e-04 4.9053521975844371e-04 -8.4779402936174439e-05  -9.4880842454540750e-04 4.8855880704356592e-04 -8.7911931708332833e-05  -9.4381493892165740e-04 4.9435803604318794e-04 -1.2188718843105886e-04  -9.8577705125120724e-04 4.9040845603717440e-04 -2.5367520449490931e-05  -9.8979355896038589e-04 5.0453473568098440e-04 -9.5251705608492953e-05  -9.7381150744450242e-04 4.8694791151301383e-04 -7.7285755772200576e-05  -7.2019451099226950e-04 1.5040292648510478e-03 -1.1344369247032749e-04  1.1088172217606614e-04 4.4440956283736833e-03 5.5607672462223035e-04  -1.8693385338031416e-03 -3.2432406259267133e-03 -8.9465925184243993e-04  5.1570162540093474e-04 1.1411586970241520e-02 1.5598542475251647e-03  -7.6721613500339272e-04 2.6094467938598642e-03 3.0281121064443765e-04  -1.2729561336334092e-03 -5.5000986589144683e-03 -7.9087725604243123e-04  -1.4034485669755050e-03 -1.7763115865639786e-03 -3.1928485678984380e-04  -9.1395983649388804e-04 5.1709814167188138e-04 3.5865596068320905e-05  -1.2653519987233207e-03 -5.9185297752152527e-03 -7.1136182594777814e-04  -6.9524278745991780e-04 7.7258418362585223e-03 7.4208310096390026e-04  -9.0240553814879734e-04 5.1842519577528095e-04 8.1623658590570508e-05  -8.6835266881017616e-04 3.5717123774511883e-03 1.9885929467643819e-04  -1.2060371843160889e-03 -6.9603541517773461e-03 -8.9958899440547744e-04  -1.1964888295531509e-03 6.9943481235319434e-03 3.6081915314856389e-04  -7.6707507560107009e-04 2.7582169775393064e-03 2.9952786301956668e-04  -9.7210123886350564e-04 -3.6093924468443075e-03 -3.8594026351323693e-04  -1.3320851946774781e-03 9.2313816533443806e-03 3.9645099726129325e-04  -6.7577618726214069e-04 -8.6616993831313879e-03 -6.0893392007441084e-04  -7.0747993780454507e-04 -1.3547386530544413e-03 -8.2457794725686047e-06  -1.4029674308446364e-03 8.4710082891471233e-03 5.4163938063673210e-04  -7.9312183088098309e-04 -2.6874273065964419e-03 -1.1064570812884950e-04  -1.5004358918103641e-03 6.3043758679720285e-03 2.6286153356394777e-04  -6.9753377153622311e-04 -1.7063235615510182e-03 -9.0166918075964200e-05  -4.7493050691949529e-04 -5.0380014198675317e-03 -3.0947726635380322e-04  -9.4206633884751784e-04 1.5910014767521509e-03 9.7672402023258199e-05  -9.5748909023212424e-04 3.5671785907261702e-04 1.1291892293480644e-05  -3.2281606859771005e-04 -5.6732055223219623e-03 -2.7478833014075147e-04  -1.5453575584127284e-03 6.2371744207347117e-03 2.8214173240660110e-04  -6.5002997154102341e-04 -4.2293799098244754e-03 -2.6791638503912118e-04  -1.1944221002176876e-03 2.5110313114914433e-03 -5.0733706480935267e-05  -1.2406989372888302e-03 5.2843301086325824e-03 1.2861837454932243e-04  -7.6460323540127821e-04 5.5368640477883790e-04 -1.5564682715980932e-04  -8.2120620721685934e-04 5.0767677191091429e-04 -1.7093195536471557e-04  -8.4108396352244451e-04 5.5969413757176660e-04 -2.3478153806008451e-04  -9.4597502190543943e-04 4.2102851111829021e-04 -2.1002494302626274e-04  -9.3559145606635888e-04 2.9221320898100675e-04 -3.0449500094081400e-04  -1.0123816367948496e-03 3.7773886318329580e-04 -1.7052193219513955e-04  -1.1025905692807394e-03 -1.7516181925843571e-04 -2.4554892971486526e-04  -1.0714506388655558e-03 6.2950126451050543e-05 -2.2995279468614833e-04  -8.0610166028374439e-04 3.2042738259709119e-04 -2.2906704520053340e-04  -9.3587850166706001e-04 4.9821606640890572e-04 -7.3130713211962768e-05  -1.0818386238419316e-03 -9.6898700607365139e-04 -5.2209441844955373e-04  -7.4774164573932953e-04 9.4419365010140778e-04 -1.8569593522926862e-05  -1.1569360343231254e-03 -4.6155831251142232e-03 -7.2217863019263578e-04  -9.3169616817920806e-04 1.9630100554901718e-03 -3.3664674400010996e-05  -9.8239053630730442e-04 -1.1038276807553893e-02 -9.1629414309635020e-04  -8.2903730253080783e-04 -3.6849062605140734e-03 -3.4031987994755141e-04  -9.6350340142241494e-04 4.5807879393957576e-04 -2.8939115007281204e-04  -8.0189998904620682e-04 5.1525364841630895e-04 -2.0445806185036240e-04  -7.7550062546156658e-04 7.2394246983979998e-04 1.2727258538177683e-05  -5.7337155864558979e-04 1.4191846015318959e-03 1.9626557174769255e-05  -9.7109605589151479e-04 2.8445135041731590e-04 -3.0450079252383771e-04  -9.3205435967792533e-04 6.2257429577587372e-04 -1.4945012420187766e-05  -7.6697614134695643e-04 1.2726899896669352e-03 1.3973586050555951e-04  -1.1534333750578729e-03 -3.8394328571385587e-03 -3.5900865886356284e-04  -9.7029451764651053e-04 -8.2194512940775223e-04 -3.3637212671869010e-04  -7.6194517216043390e-04 3.4196065332702075e-03 2.5854493899098234e-04  -1.0042859044489072e-03 1.6210969103362253e-03 4.1533417604798842e-05  -1.0460706154317757e-03 -5.3853355799201195e-03 -8.2931535257847744e-04  -9.9451226456014215e-04 1.5641560548641770e-04 -2.0925212785741803e-04  -1.0180869092442824e-03 6.5163899319498834e-04 -8.6124814545462659e-05  -7.9693635051504910e-04 8.6532774310459635e-04 7.7968259408718610e-05  -1.0517284713032710e-03 5.2656220250029842e-05 -2.2789760773560207e-04  -1.0378039953038171e-03 3.6590311676163101e-04 -2.2447529599226791e-04  -7.9538472912530993e-04 7.9839823668658209e-04 5.6090771766809680e-05  -9.0224516477824040e-04 5.1825106918834164e-04 -3.2053720292193052e-06  -9.8123847087433556e-04 4.6833613730582645e-04 -1.8183818764600432e-04  -9.8596899518766214e-04 4.5520191507329483e-04 -1.4413102729127919e-04  -8.4271022138115385e-04 5.7982091171344019e-04 5.2845265294952388e-05  -8.6798228876763860e-04 5.0867089983036768e-04 -1.5242943936143307e-04  -9.5678197121087938e-04 4.9635853714933577e-04 -1.2331869962755655e-04  -9.8643570431644579e-04 3.1567988559832701e-04 -1.5759968842930626e-04  -1.0425346088665949e-03 3.5882070323353802e-05 -1.7549778074938278e-04  -7.8367678455453708e-04 6.8874581724406923e-04 -6.0884810890356166e-05  -1.0687517120305863e-03 -3.2653867992107742e-04 -3.4074651935597425e-04  -8.2337838451202589e-04 5.1813894398622384e-04 -2.0330014387653786e-04  -9.8292339883803695e-04 4.3626842184527146e-04 -1.2362751615359704e-04  -9.8808296894412648e-04 3.7824445958347042e-04 -2.8011447897607352e-04  -1.0224650184691209e-03 4.5077000163919889e-04 -1.6079462869376807e-04  -8.7235960927419095e-04 5.1513447118769389e-04 -7.7586518460440309e-05  -8.0704792715276979e-04 6.8725673878065126e-04 -6.2174135678387502e-05  -1.0235978444305398e-03 2.2850924577196604e-04 -8.2548598539806717e-05  -1.0221762967376777e-03 3.2726000780445056e-04 -2.3244883010046748e-04  -7.8670265164262920e-04 9.3692031076439961e-04 9.4710970375750070e-05  -9.4576668856984568e-04 4.8873128014923709e-04 -1.1667325371900097e-04  -9.5340414919366332e-04 4.7909841237694342e-04 -2.3744100444345750e-04  -1.0173659894496107e-03 3.3933178959811715e-04 -6.2375934553505829e-05  -8.6370332511141973e-04 5.3105595536256467e-04 -7.8553994862866206e-05  -9.5018445326385025e-04 4.7802859449865676e-04 -1.4918201406064868e-04  -9.6808050216995976e-04 4.6717951848091485e-04 -2.2821673637790814e-04  -9.5690035310509638e-04 4.9505096069779402e-04 -8.9872638057041267e-05  -9.3321565968325164e-04 7.4408683836876463e-04 -1.5993421349891603e-04  -8.2586187390076176e-04 4.0836693770701513e-04 -7.8245723082386305e-05  -6.5662214634620842e-04 -4.6484842694498917e-03 -4.8785937739019282e-04  -9.7513578638402942e-04 5.6031083858041350e-04 7.7480353007237150e-06  -9.3428995392973819e-04 4.2854542408012200e-04 -9.4499410198822911e-05  -1.0232324434904690e-03 5.8265346432923623e-04 -1.6147925170745045e-04  -7.9596358218617038e-04 -1.3140618741279959e-03 -1.0838580793219321e-04  -7.7752986702160404e-04 -9.5327752765108167e-04 -2.2578858054133033e-04  -9.8286204612330497e-04 -1.0077691172335154e-03 -1.0478329396037507e-04  -1.5281303074932402e-03 8.3804966157445693e-03 5.6037415570768393e-04  -1.0344878931421309e-03 4.1075193298701048e-03 1.8834669637443383e-04  -8.0505265155411947e-04 -3.8238976995912072e-03 -3.4737310677353120e-04  -8.3157776470601673e-04 -1.9381536180598765e-03 -2.6546455414122063e-04  -6.0635245046957353e-04 -1.7504301503220507e-03 -1.0703462782092804e-04  -1.4803625440497825e-03 4.3988522604773575e-03 3.1283688558998772e-04  -9.1792130554888929e-04 -9.0112602674234123e-04 -9.8961376758659512e-05  -6.5687855472769060e-04 -9.4438215197265756e-04 -4.9962627377476976e-05  3.8308334909551773e-04 -1.7402040690145913e-02 -1.4074523046927370e-03  -7.7406171205529237e-04 -2.0081224897256201e-03 -1.7685734649097143e-04  -2.1891547648515155e-03 1.7234228940555995e-02 1.2865358176443766e-03  -8.9756250417339593e-04 4.2847843519583080e-04 -6.8007340737902399e-05  -1.0243246821910244e-03 5.5939696236525398e-04 -4.0457234088937056e-06  -8.0926242616779413e-04 -7.0271786986397331e-03 -8.6503530442919117e-04  -9.8464520178190751e-04 4.4030941512514260e-04 -2.8797130687066639e-05  -9.3090890615535912e-04 5.67176404934709