<?xml version="1.0"?>
<VTKFile type="UnstructuredGrid"  version="0.1"  >
<UnstructuredGrid>
<Piece  NumberOfPoints="14" NumberOfCells="12">
<Points>
<DataArray  type="Float64"  NumberOfComponents="3"  format="ascii">25 -16.0696907043457 19.1511116027832  2.514793174794735e-15 -16.0696907043457 19.1511116027832  2.375229250141538e-15 -13.79043769836426 20.85241889953613  25 -13.65904235839844 20.93872833251953  1.530808446617452e-15 1.530808446617452e-15 25  25 3.061616893234903e-15 25  25 -2.839588642120361 24.83820343017578  1.714243489861619e-15 -2.995721101760864 24.81985855102539  1.885988949038085e-15 -5.800535678863525 24.31774711608887  25 -5.745092391967773 24.33090400695801  2.058889337638132e-15 -8.624213218688965 23.46532821655273  25 -8.476692199707031 23.51902198791504  2.218974753020932e-15 -11.23860836029053 22.33142852783203  25 -11.18767833709717 22.35698699951172  </DataArray>
</Points>
<Cells>
<DataArray  type="UInt32"  Name="connectivity"  format="ascii">0 1 2  0 2 3  4 5 6  4 6 7  7 8 9  6 7 9  8 10 11  8 9 11  10 12 13  10 11 13  2 3 12  3 12 13  </DataArray>
<DataArray  type="UInt32"  Name="offsets"  format="ascii">3 6 9 12 15 18 21 24 27 30 33 36 </DataArray>
<DataArray  type="UInt8"  Name="types"  format="ascii">5 5 5 5 5 5 5 5 5 5 5 5 </DataArray>
</Cells>
<PointData  Vectors="u"> 
<DataArray  type="Float64"  Name="u"  NumberOfComponents="3" format="ascii">0.0000000000000000e+00 0.0000000000000000e+00 0.0000000000000000e+00  0.0000000000000000e+00 0.0000000000000000e+00 0.0000000000000000e+00  0.0000000000000000e+00 0.0000000000000000e+00 0.0000000000000000e+00  0.0000000000000000e+00 0.0000000000000000e+00 0.0000000000000000e+00  0.0000000000000000e+00 0.0000000000000000e+00 0.0000000000000000e+00  0.0000000000000000e+00 0.0000000000000000e+00 0.0000000000000000e+00  0.0000000000000000e+00 0.0000000000000000e+00 0.0000000000000000e+00  0.0000000000000000e+00 0.0000000000000000e+00 0.0000000000000000e+00  0.0000000000000000e+00 0.0000000000000000e+00 0.0000000000000000e+00  0.0000000000000000e+00 0.0000000000000000e+00 0.0000000000000000e+00  0.0000000000000000e+00 0.0000000000000000e+00 0.0000000000000000e+00  0.0000000000000000e+00 0.0000000000000000e+00 0.0000000000000000e+00  0.0000000000000000e+00 0.0000000000000000e+00 0.0000000000000000e+00  0.0000000000000000e+00 0.0000000000000000e+00 0.0000000000000000e+00  </DataArray> 
</PointData> 
</Piece>
</UnstructuredGrid>
</VTKFile>