<?xml version="1.0"?>
<VTKFile type="UnstructuredGrid"  version="0.1"  >
<UnstructuredGrid>
<Piece  NumberOfPoints="777" NumberOfCells="1376">
<Points>
<DataArray  type="Float64"  NumberOfComponents="3"  format="ascii">3.999999999999964 0 0  4.249999999999965 0 0  4.124999999998478 0.2534792888374535 0  4.374999999998479 0.2534792888374535 0  4.499999999999966 0 0  4.249999999996992 0.506958577674907 0  4.624999999998479 0.2534792888374535 0  4.499999999996993 0.506958577674907 0  4.749999999996994 0.506958577674907 0  4.749999999999967 0 0  4.874999999998481 0.2534792888374535 0  4.999999999999968 0 0  4.374999999995506 0.7604378665123606 0  4.624999999995506 0.7604378665123606 0  4.499999999994019 1.013917155349814 0  5.99999999999997 0 0  6.249999999999971 0 0  6.124999999997403 0.2534792888376092 0  6.374999999997405 0.2534792888376092 0  6.499999999999972 0 0  6.249999999994837 0.5069585776752185 0  6.624999999997405 0.2534792888376092 0  6.499999999994838 0.5069585776752185 0  6.749999999994839 0.5069585776752185 0  6.749999999999972 0 0  6.874999999997407 0.2534792888376092 0  6.999999999999973 0 0  6.374999999992271 0.7604378665128277 0  6.624999999992271 0.7604378665128277 0  6.499999999989704 1.013917155350437 0  1.999999999999982 0 0  2.24999999999998 0 0  2.12499999999946 0.2613818370536612 0  2.374999999999459 0.2613818370536612 0  2.499999999999979 0 0  2.249999999998939 0.5227636741073225 0  2.624999999999457 0.2613818370536612 0  2.499999999998937 0.5227636741073225 0  2.749999999998935 0.5227636741073225 0  2.749999999999977 0 0  2.874999999999455 0.2613818370536612 0  2.999999999999975 0 0  2.374999999998417 0.7841455111609837 0  2.624999999998415 0.7841455111609837 0  2.499999999997895 1.045527348214645 0  1.999999999998379 2 0  1.74999999999856 2 0  1.874999999998781 1.716506350946107 0  1.624999999998962 1.716506350946107 0  1.499999999998741 2 0  1.749999999999184 1.433012701892215 0  1.374999999999143 1.716506350946107 0  1.499999999999365 1.433012701892215 0  1.249999999999545 1.433012701892215 0  1.249999999998922 2 0  1.124999999999324 1.716506350946107 0  0.9999999999991025 2 0  1.624999999999586 1.149519052838322 0  1.374999999999767 1.149519052838322 0  1.499999999999988 0.8660254037844294 0  7.999999999999975 0 0  8.249999999999975 0 0  8.124690294450405 0.261918262795331 0  8.374690294450405 0.261918262795331 0  8.499999999999975 0 0  8.249380588900834 0.523836525590662 0  8.624690294450405 0.261918262795331 0  8.499380588900834 0.523836525590662 0  8.749380588900834 0.523836525590662 0  8.749999999999975 0 0  8.874690294450406 0.261918262795331 0  8.999999999999977 0 0  8.374070883351264 0.785754788385993 0  8.624070883351264 0.785754788385993 0  8.498761177801693 1.047673051181324 0  18.99999999999849 2 0  18.74999999999811 2 0  18.87499999999887 1.71650635094611 0  18.62499999999849 1.71650635094611 0  18.49999999999773 2 0  18.74999999999925 1.433012701892219 0  18.37499999999811 1.71650635094611 0  18.49999999999887 1.433012701892219 0  18.24999999999849 1.433012701892219 0  18.24999999999736 2 0  18.12499999999773 1.71650635094611 0  17.99999999999698 2 0  18.62499999999962 1.149519052838329 0  18.37499999999925 1.149519052838329 0  18.5 0.8660254037844386 0  16.99999999999547 2 0  16.74999999999509 2 0  16.87499999999629 1.746520711162699 0  16.62499999999591 1.746520711162699 0  16.49999999999471 2 0  16.7499999999971 1.493041422325399 0  16.37499999999553 1.746520711162699 0  16.49999999999672 1.493041422325399 0  16.24999999999635 1.493041422325399 0  16.24999999999434 2 0  16.12499999999515 1.746520711162699 0  15.99999999999396 2 0  16.62499999999792 1.239562133488098 0  16.37499999999754 1.239562133488098 0  16.49999999999874 0.9860828446507974 0  12.99999999998939 2 0  12.74999999998901 2 0  12.87499999999136 1.74652071116254 0  12.62499999999098 1.74652071116254 0  12.49999999998862 2 0  12.74999999999334 1.49304142232508 0  12.3749999999906 1.74652071116254 0  12.49999999999295 1.49304142232508 0  12.24999999999257 1.49304142232508 0  12.24999999998824 2 0  12.12499999999022 1.74652071116254 0  11.99999999998786 2 0  12.62499999999531 1.239562133487619 0  12.37499999999493 1.239562133487619 0  12.49999999999728 0.9860828446501591 0  10.99999999998634 2 0  10.74999999998596 2 0  10.87439297711764 1.749732347235992 0  10.62439297711725 1.749732347235992 0  10.49999999998558 2 0  10.74878595424893 1.499464694471983 0  10.37439297711687 1.749732347235992 0  10.49878595424855 1.499464694471983 0  10.24878595424817 1.499464694471983 0  10.2499999999852 2 0  10.1243929771165 1.749732347235992 0  9.999999999984821 2 0  10.62317893138022 1.249197041707975 0  10.37317893137984 1.249197041707975 0  10.49757190851152 0.9989293889439668 0  14.99999999999243 2 0  14.74999999999205 2 0  14.87499999999383 1.74652071116262 0  14.62499999999345 1.74652071116262 0  14.49999999999167 2 0  14.74999999999522 1.493041422325239 0  14.37499999999307 1.74652071116262 0  14.49999999999484 1.493041422325239 0  14.24999999999446 1.493041422325239 0  14.24999999999129 2 0  14.12499999999268 1.74652071116262 0  13.99999999999091 2 0  14.62499999999661 1.239562133487858 0  14.37499999999624 1.239562133487858 0  14.49999999999801 0.9860828446504779 0  10.24702918641092 0.9928167955694513 0  10.12263620927924 1.24308444833346 0  9.996486464310319 0.986704202194936 0  9.998243232147571 1.493352101097468 0  9.872093487178645 1.236971854958944 0  9.747700510046972 1.487239507722953 0  9.873850255015896 1.743619753861476 0  9.74594374220972 0.9805916088204207 0  9.621550765078046 1.230859261584429 0  9.495401020109121 0.9744790154459053 0  9.749999999984439 2 0  9.623850255015515 1.743619753861476 0  9.499999999984059 2 0  9.373850255015135 1.743619753861476 0  9.497700510046592 1.487239507722953 0  9.24770051004621 1.487239507722953 0  9.249999999983679 2 0  9.123850255014755 1.743619753861476 0  8.999999999983299 2 0  9.371550765077664 1.230859261584429 0  3.999999999993654 2 0  3.749999999994383 2 0  3.874999999994342 1.744460791439874 0  3.624999999995071 1.744460791439874 0  3.499999999995112 2 0  3.74999999999503 1.488921582879748 0  3.3749999999958 1.744460791439874 0  3.499999999995759 1.488921582879748 0  3.249999999996488 1.488921582879748 0  3.249999999995841 2 0  3.124999999996529 1.744460791439874 0  2.99999999999657 2 0  3.624999999995718 1.233382374319621 0  3.374999999996447 1.233382374319621 0  3.499999999996406 0.9778431657594949 0  5.99999999998782 2 0  5.74999999998855 2 0  5.87499999998929 1.751159762945844 0  5.62499999999002 1.751159762945844 0  5.499999999989278 2 0  5.749999999990761 1.502319525891687 0  5.374999999990749 1.751159762945844 0  5.49999999999149 1.502319525891687 0  5.24999999999222 1.502319525891687 0  5.249999999990007 2 0  5.124999999991478 1.751159762945844 0  4.999999999990736 2 0  5.624999999992232 1.253479288837531 0  5.37499999999296 1.253479288837531 0  5.499999999993702 1.004639051783375 0  16.99999999999999 0 0  17.24999999999999 0 0  17.1249999999998 0.2593847116342085 0  17.37499999999981 0.2593847116342085 0  17.49999999999999 0 0  17.24999999999962 0.518769423268417 0  17.62499999999981 0.2593847116342085 0  17.49999999999962 0.518769423268417 0  17.74999999999962 0.518769423268417 0  17.75 0 0  17.87499999999981 0.2593847116342085 0  18 0 0  17.37499999999944 0.7781541349026255 0  17.62499999999944 0.7781541349026255 0  17.49999999999925 1.037538846536834 0  14.99999999999999 0 0  15.24999999999999 0 0  15.12499999999929 0.2488402370542198 0  15.37499999999929 0.2488402370542198 0  15.49999999999999 0 0  15.24999999999858 0.4976804741084396 0  15.62499999999929 0.2488402370542198 0  15.49999999999858 0.4976804741084396 0  15.74999999999858 0.4976804741084396 0  15.74999999999999 0 0  15.87499999999929 0.2488402370542198 0  15.99999999999999 0 0  15.37499999999788 0.7465207111626594 0  15.62499999999788 0.7465207111626594 0  15.49999999999718 0.9953609482168791 0  7.999999999982053 2 0  7.749999999982765 2 0  7.874963130275843 1.744524651647608 0  7.624963130276555 1.744524651647608 0  7.499999999983477 2 0  7.749926260569634 1.489049303295215 0  7.374963130277267 1.744524651647608 0  7.499926260570346 1.489049303295215 0  7.249926260571058 1.489049303295215 0  7.24999999998419 2 0  7.12496313027798 1.744524651647608 0  6.999999999984902 2 0  7.624889390863425 1.233573954942823 0  7.374889390864137 1.233573954942823 0  7.499852521157216 0.9780986065904302 0  12.99999999999999 0 0  13.24999999999999 0 0  13.12499999999898 0.2488402370541932 0  13.37499999999898 0.2488402370541932 0  13.49999999999999 0 0  13.24999999999796 0.4976804741083863 0  13.62499999999898 0.2488402370541932 0  13.49999999999796 0.4976804741083863 0  13.74999999999796 0.4976804741083863 0  13.74999999999999 0 0  13.87499999999898 0.2488402370541932 0  13.99999999999999 0 0  13.37499999999694 0.7465207111625796 0  13.62499999999694 0.7465207111625796 0  13.49999999999593 0.9953609482167727 0  10.99999999999998 0 0  11.24999999999998 0 0  11.12489882952011 0.2493755097330886 0  11.37489882952011 0.2493755097330886 0  11.49999999999998 0 0  11.24979765904023 0.4987510194661772 0  11.62489882952011 0.2493755097330886 0  11.49979765904023 0.4987510194661772 0  11.74979765904023 0.4987510194661772 0  11.74999999999998 0 0  11.87489882952011 0.2493755097330886 0  11.99999999999998 0 0  11.37469648856036 0.7481265291992658 0  11.62469648856036 0.7481265291992658 0  11.49959531808049 0.9975020389323543 0  6.749963130281582 1.004962518160435 0  6.874963130284149 0.751483229322826 0  6.99992626057346 0.9960078809704336 0  6.999963130286717 0.4980039404852168 0  7.124926260576027 0.7425285921328244 0  7.249926260578595 0.4890493032952151 0  7.124963130289284 0.2445246516476076 0  7.249889390865338 0.9870532437804319 0  7.374889390867905 0.7335739549428226 0  4.74999999999394 1.011597629458204 0  4.874999999995428 0.7581183406207508 0  4.999999999993861 1.009278103566595 0  4.999999999996
[...]
<PointData  Vectors="t"> 
<DataArray  type="Float64"  Name="t"  NumberOfComponents="3" format="ascii">-1.6642606898182203e-07 9.9517710311404058e-05 0.0000000000000000e+00  -2.6507575764127017e-07 1.0268801964476191e-04 4.9406564584124654e-324  -3.0262778642270842e-07 1.0114215053989029e-04 -4.9406564584124654e-324  -3.9951930463376041e-07 1.0416781582216852e-04 4.9406564584124654e-324  -3.9060406099251845e-07 1.0555173755754864e-04 -4.9406564584124654e-324  -4.2317818686615280e-07 1.0277040566660363e-04 4.9406564584124654e-324  -5.2636407097364114e-07 1.0689566039653418e-04 -4.9406564584124654e-324  -5.1577842300127116e-07 1.0566906643667292e-04 4.9406564584124654e-324  -6.4538848696837979e-07 1.0825920532013922e-04 0.0000000000000000e+00  -5.5375004401925829e-07 1.0806242463480488e-04 -4.9406564584124654e-324  -6.8372138419881174e-07 1.0932968982215015e-04 0.0000000000000000e+00  -6.9648212133445050e-07 1.1016043372466430e-04 -4.9406564584124654e-324  -5.4326048461565676e-07 1.0434410523071083e-04 4.9406564584124654e-324  -6.4135340737235058e-07 1.0715008966259652e-04 -4.9406564584124654e-324  -6.8779448884196242e-07 1.0587637202747991e-04 4.9406564584124654e-324  -2.0995229304263510e-06 1.1851370263124341e-04 4.9406564584124654e-324  -2.5145729901692686e-06 1.2103291041905844e-04 4.9406564584124654e-324  -2.7460749541576284e-06 1.1976936278984511e-04 0.0000000000000000e+00  -3.5852418223240213e-06 1.2239882973744294e-04 0.0000000000000000e+00  -2.5275361826942656e-06 1.2439588485622087e-04 -4.9406564584124654e-324  -4.0494149817459469e-06 1.2260473482970095e-04 4.9406564584124654e-324  -4.6664118532260735e-06 1.2564517146158161e-04 0.0000000000000000e+00  -5.9824751697665427e-06 1.2643387195320418e-04 4.9406564584124654e-324  -9.2692450308614039e-06 1.3199477386716284e-04 4.9406564584124654e-324  -9.0761563005196320e-07 1.3029735083504941e-04 -4.9406564584124654e-324  -5.9387374165096087e-06 1.3148254034434421e-04 0.0000000000000000e+00  1.4663907595575015e-06 1.3971774559803297e-04 4.9406564584124654e-324  -5.1960725484568219e-06 1.2568316311980572e-04 4.9406564584124654e-324  -6.5899956362469934e-06 1.3026606080968127e-04 0.0000000000000000e+00  -2.5484229148607480e-06 1.2852035320118528e-04 -4.9406564584124654e-324  4.0466136636450597e-07 6.2589621050531308e-05 -4.9406564584124654e-324  3.4173304502754674e-07 6.8473440515337851e-05 -4.9406564584124654e-324  1.9552849398955205e-07 6.5583244691790957e-05 -4.9406564584124654e-324  1.3737071726781707e-07 7.1266832949534790e-05 4.9406564584124654e-324  2.7405928400902323e-07 7.3960785357224393e-05 0.0000000000000000e+00  -3.5484359718452719e-09 6.8520973649617759e-05 0.0000000000000000e+00  8.0533171615770369e-08 7.6563970005908162e-05 0.0000000000000000e+00  -5.3793791480469812e-08 7.4011948253851749e-05 0.0000000000000000e+00  -1.0080017281767674e-07 7.9124620595574370e-05 0.0000000000000000e+00  2.0652016519457362e-07 7.9071354055374200e-05 4.9406564584124654e-324  2.4330883520408216e-08 8.1493424991402707e-05 -4.9406564584124654e-324  1.3990131552106680e-07 8.3823833505996062e-05 4.9406564584124654e-324  -1.9107908100474501e-07 7.1358875581486916e-05 4.9406564584124654e-324  -2.3293029093401982e-07 7.6660820815256124e-05 0.0000000000000000e+00  -3.6904343348448499e-07 7.4102229335227583e-05 -4.9406564584124654e-324  -9.2670655371662990e-07 6.2903405510372654e-05 4.9406564584124654e-324  -8.9921062684940571e-07 5.6623076343343393e-05 0.0000000000000000e+00  -7.0777906591386385e-07 5.9804058686612358e-05 0.0000000000000000e+00  -6.6547313060686529e-07 5.3313635465644850e-05 -4.9406564584124654e-324  -8.6875540673988430e-07 4.9925323295316035e-05 4.9406564584124654e-324  -4.9113215256156866e-07 5.6566437395252850e-05 4.9406564584124654e-324  -6.2339342532677367e-07 4.6392958663872670e-05 4.9406564584124654e-324  -4.4380421951701482e-07 4.9851705358639845e-05 0.0000000000000000e+00  -4.1866770542948834e-07 4.2693414024531319e-05 -4.9406564584124654e-324  -8.4231507984951743e-07 4.2782932597628034e-05 0.0000000000000000e+00  -6.0954817382593398e-07 3.9011412345905477e-05 4.9406564584124654e-324  -8.5565677613641786e-07 3.5109859761988185e-05 4.9406564584124654e-324  -2.9146677040242915e-07 5.3214835345638272e-05 4.9406564584124654e-324  -2.6048896161855080e-07 4.6276110421310213e-05 -4.9406564584124654e-324  -7.7433840774616824e-08 4.9800411762696962e-05 0.0000000000000000e+00  4.3098424151407379e-06 1.5429891116473725e-04 4.9406564584124654e-324  5.2446278850879330e-06 1.5608105878301413e-04 0.0000000000000000e+00  2.9905214867083637e-06 1.5324052234243774e-04 -4.9406564584124654e-324  4.8028852593380790e-06 1.5534363239275484e-04 -4.9406564584124654e-324  5.9473265175586997e-06 1.5782460627634357e-04 4.9406564584124654e-324  3.2641262145535202e-06 1.5295343410891879e-04 -4.9406564584124654e-324  6.0032581793350953e-06 1.5744866129319300e-04 -4.9406564584124654e-324  3.9960938068653385e-06 1.5533981185357913e-04 0.0000000000000000e+00  4.9054169812964100e-06 1.5788976793791094e-04 0.0000000000000000e+00  7.3350100826586613e-06 1.5985999056596811e-04 0.0000000000000000e+00  6.0703607290477656e-06 1.5944777154727613e-04 0.0000000000000000e+00  8.9894276328599444e-06 1.6237844234519478e-04 -4.9406564584124654e-324  2.7034417315637166e-06 1.5351709470531487e-04 -4.9406564584124654e-324  3.5013032010790069e-06 1.5613925672836363e-04 0.0000000000000000e+00  1.0435407123311684e-06 1.5342626264243329e-04 4.9406564584124654e-324  -9.1079753789725557e-05 4.3674545149828840e-04 0.0000000000000000e+00  -8.7138552972162178e-05 4.2617120611436075e-04 0.0000000000000000e+00  -7.8919518791444287e-05 4.2644505867376887e-04 0.0000000000000000e+00  -8.0816697705017547e-05 4.1320836705170048e-04 0.0000000000000000e+00  -8.9973121000366032e-05 3.9492913933009875e-04 0.0000000000000000e+00  -6.7080666879918883e-05 4.2519542295553405e-04 4.9406564584124654e-324  -7.4058530778922823e-05 3.9141548965417413e-04 4.9406564584124654e-324  -6.7858127350534781e-05 3.9044680119630995e-04 0.0000000000000000e+00  -6.9067294922932478e-05 3.7077253661217701e-04 0.0000000000000000e+00  -9.1507824217365030e-05 3.7914866627131199e-04 -4.9406564584124654e-324  -6.9987826243885233e-05 3.5129293345007674e-04 0.0000000000000000e+00  -8.3919451230049643e-05 3.6214386952704725e-04 -4.9406564584124654e-324  -6.6391763062889752e-05 4.1136188477242824e-04 4.9406564584124654e-324  -5.8961092038463229e-05 3.8554337907795085e-04 -4.9406564584124654e-324  -5.2746531625339162e-05 3.8675179555212641e-04 4.9406564584124654e-324  -5.3566040388084229e-05 2.9251659403943737e-04 4.9406564584124654e-324  -5.1838669985638516e-05 2.9460484836041080e-04 -4.9406564584124654e-324  -5.3856237144981950e-05 2.9322105824844559e-04 -4.9406564584124654e-324  -4.5147050713014971e-05 2.8367551186983617e-04 4.9406564584124654e-324  -5.1384352074313613e-05 2.9443305490665938e-04 0.0000000000000000e+00  -4.8561583266507044e-05 2.8666877406132308e-04 -4.9406564584124654e-324  -4.3821485015023125e-05 2.8519036311965452e-04 4.9406564584124654e-324  -4.5568680023218062e-05 2.8567112159302394e-04 4.9406564584124654e-324  -3.5872387118034262e-05 2.7101612081026870e-04 4.9406564584124654e-324  -4.4401338575931157e-05 2.7795866837025012e-04 0.0000000000000000e+00  -4.2341539001687216e-05 2.8713610792281143e-04 -4.9406564584124654e-324  -3.6925222773275816e-05 2.8451829202253152e-04 0.0000000000000000e+00  -4.3169767357031588e-05 2.7479916501619602e-04 4.9406564584124654e-324  -4.1712409990881160e-05 2.7687526653652570e-04 0.0000000000000000e+00  -4.4374594851415351e-05 2.7578356425196057e-04 4.9406564584124654e-324  -1.7556045774834999e-05 2.1703527908004052e-04 -4.9406564584124654e-324  -1.6608621253775448e-05 2.1406019490256381e-04 -4.9406564584124654e-324  -1.3526752400129878e-05 2.1256118653357607e-04 4.9406564584124654e-324  -1.3412507077918041e-05 2.1135723237931589e-04 -4.9406564584124654e-324  -1.3979255589729080e-05 2.1077947061135115e-04 0.0000000000000000e+00  -1.2761106242069896e-05 2.1112149276349964e-04 4.9406564584124654e-324  -1.3136651135178349e-05 2.0938948977660318e-04 0.0000000000000000e+00  -1.0031629382717021e-05 2.0805972464103031e-04 4.9406564584124654e-324  -8.3898911597436370e-06 2.0680656146668724e-04 -4.9406564584124654e-324  -1.3277106569411680e-05 2.0964403957168752e-04 4.9406564584124654e-324  -1.0646996721049131e-05 2.0566662620000401e-04 -4.9406564584124654e-324  -1.4276739026208514e-05 2.0595500239239836e-04 4.9406564584124654e-324  -8.2797050211955528e-06 2.0835409576216234e-04 0.0000000000000000e+00  -7.2198233142674282e-06 2.0664000659333182e-04 4.9406564584124654e-324  -3.6746524295986692e-06 2.0416734439358434e-04 -4.9406564584124654e-324  -8.0092343128989589e-06 1.8663762729754181e-04 4.9406564584124654e-324  -5.8582595950497365e-06 1.8168653299384149e-04 0.0000000000000000e+00  -4.9749154148326755e-06 1.8167672895910526e-04 4.9406564584124654e-324  -2.2185098052684886e-06 1.8070461818205002e-04 4.9406564584124654e-324  -6.6060860161741426e-06 1.7916734653022543e-04 0.0000000000000000e+00  2.1672535517197922e-06 1.7800380319523727e-04 0.0000000000000000e+00  -8.8483365839156088e-07 1.7559904232815519e-04 0.0000000000000000e+00  2.0389231086673108e-06 1.7691026353882559e-04 4.9406564584124654e-324  5.2268462800897565e-06 1.7329377641058378e-04 -4.9406564584124654e-324  -5.1110209419923409e-06 1.7520527555285229e-04 4.9406564584124654e-324  -9.6823155125626166e-07 1.6983114095912413e-04 0.0000000000000000e+00  -3.7044927535964634e-06 1.7120766827792097e-04 4.9406564584124654e-324  6.4785718124877943e-06 1.7895294396193582e-04 0.0000000000000000e+00  5.2716653521892758e-06 1.7234874177048269e-04 0.0000000000000000e+00  5.4473683760176498e-06 1.7593113245342878e-04 -4.9406564584124654e-324  -2.6021284885737996e-05 2.4528209258167403e-04 -4.9406564584124654e-324  -3.1215338865216410e-05 2.3580082288187753e-04 -4.9406564584124654e-324  -2.7816583201571423e-05 2.3822319949697764e-04 4.9406564584124654e-324  -2.3664306908446312e-05 2.3867170916637751e-04 4.9406564584124654e-324  -2.8662335777513112e-05 2.3201267185430957e-04 0.0000000000000000e+00  -1.8666599261673688e-05 2.3227430353367330e-04 0.0000000000000000e+00  -2.0303554877793627e-05 2.1961484190289145e-04 0.0000000000000000e+00  -2.1521770231233197e-05 2.2841591422630641e-04 -4.9406564584124654e-324  -2.1376326460993384e-05 2.2665983699592766e-04 0.0000000000000000e+00  -2.7369502009263818e-05 2.3062516574080070e-04 0.0000000000000000e+00  -2.2676330833278373e-05 2.2416610666045877e-04 4.9406564584124654e-324  -1.8750108925501294e-05 2.2117885809898931e-04 -4.9406564584124654e-324  -2.1546543118497865e-05 2.3922105376245637e-04 0.0000000000000000e+00  -6.5992305048189589e-06 2.1605033536539585e-04 4.9406564584124654e-324  -1.7747908607431577e-05 2.2926116736851298e-04 -4.9406564584124654e-324  6.2301880858285845e-06 1.7375244242770772e-04 4.9406564584124654e-324  5.3598170100850493e-06 1.7045321989599940e-04 0.0000000000000000e+00  4.4203082982443632e-06 1.7010943440824334e-04 -4.9406564584124654e-324  4.8144505763321433e-06 1.7052857378589546e-04 4.9406564584124654e-324  4.2665650688290325e-06 1.6846546742816865e-04 -4.9406564584124654e-324  3.8819323028273510e-06 1.6816259458422793e-04 -4.9406564584124654e-324  4.6527072967931908e-07 1.6579247782686992e-04 -4.9406564584124654e-324  4.1041832705437309e-06 1.6801646504896226e-04 -4.9406564584124654e-324  3.5001609800799623e-06 1.6611024482180060e-04 4.9406564584124654e-324  3.0944762760174723e-06 1.6513936796520214e-04 4.9406564584124654e-324  -2.1776089207157842e-06 1.6846105871588687e-04 -4.9406564584124654e-324  1.9412485480606988e-07 1.6333370229682672e-04 -4.9406564584124654e-324  -1.7219064184066596e-07 1.6533474335427611e-04 4.9406564584124654e-324  9.1706554831326110e-08 1.6375823823005673e-04 4.9406564584124654e-324  3.0624158759187891e-06 1.6557495335809162e-04 4.9406564584124654e-324  2.5065111189837266e-06 1.6028648793003426e-04 4.9406564584124654e-324  -1.4998954837046631e-06 1.6038724109868207e-04 -4.9406564584124654e-324  2.0338354407832206e-06 1.6022302787356947e-04 4.9406564584124654e-324  -2.9246144562522657e-06 1.5740058585499129e-04 4.9406564584124654e-324  2.6195004354150657e-06 1.6348897715936768e-04 -4.9406564584124654e-324  -1.0454853372388860e-06 9.9834084265251996e-05 -4.9406564584124654e-324  -1.0112223290418777e-06 9.6314430572520685e-05 0.0000000000000000e+00  -9.1108328101892342e-07 9.8101752905506930e-05 4.9406564584124654e-324  -8.7776070931229424e-07 9.4447625830153554e-05 -4.9406564584124654e-324  -9.9008637456784196e-07 9.2519282191324507e-05 0.0000000000000000e+00  -7.6418724018164961e-07 9.6276591702013800e-05 0.0000000000000000e+00  -8.5411350400110852e-07 9.0505836071662276e-05 0.0000000000000000e+00  -7.3292950902610281e-07 9.2488678087130404e-05 0.0000000000000000e+00  -7.0818578595126093e-07 8.8398615186599690e-05 0.0000000000000000e+00  -9.7749145750767914e-07 8.8425556183222790e-05 0.0000000000000000e+00  -8.3665293457828191e-07 8.6254932258568050e-05 0.0000000000000000e+00  -9.6940726815558056e-07 8.4012835536578274e-05 -4.9406564584124654e-324  -6.1384636702521078e-07 9.4387160881174650e-05 -4.9406564584124654e-324  -5.8342521966713818e-07 9.0454313406734767e-05 -4.9406564584124654e-324  -4.6618659901060360e-07 9.2426761658176700e-05 -4.9406564584124654e-324  -2.2081775245745243e-06 1.2276922732542723e-04 0.0000000000000000e+00  -2.0439641674986843e-06 1.1995436946230854e-04 0.0000000000000000e+00  -2.0774431646759248e-06 1.2133521624700253e-04 0.0000000000000000e+00  -1.8726041618212074e-06 1.1854434153758373e-04 0.0000000000000000e+00  -1.8378970007085608e-06 1.1719878435184672e-04 4.9406564584124654e-324  -1.9548571912419409e-06 1.1972084084770014e-04 0.0000000000000000e+00  -1.6469827222026082e-06 1.1582018231952204e-04 -4.9406564584124654e-324  -1.6931194652790748e-06 1.1694812950760984e-04 4.9406564584124654e-324  -1.4371890671681839e-06 1.1427021329606270e-04 4.9406564584124654e-324  -1.6276953399338882e-06 1.1449330741606430e-04 4.9406564584124654e-324  -1.4368302509236496e-06 1.1312844997301649e-04 -4.9406564584124654e-324  -1.4410267992989189e-06 1.1179101698813640e-04 4.9406564584124654e-324  -1.8150733498452707e-06 1.1800676772424962e-04 4.9406564584124654e-324  -1.4800002694937315e-06 1.1532203638744890e-04 -4.9406564584124654e-324  -1.5969096031721083e-06 1.1622997500214128e-04 0.0000000000000000e+00  -2.9011880303693398e-05 2.6560243083309981e-04 4.9406564584124654e-324  -1.7289289173698479e-05 2.8785219017677229e-04 -4.9406564584124654e-324  -4.1232404258505747e-05 2.7130912824413717e-04 0.0000000000000000e+00  -3.7265397728779459e-05 2.7988194388221392e-04 0.0000000000000000e+00  -2.0833009785238075e-05 3.0594243435075411e-04 4.9406564584124654e-324  -4.3183141840365655e-05 2.8480147091008220e-04 4.9406564584124654e-324  -3.1430423294727621e-05 3.2493813625654049e-04 4.9406564584124654e-324  -5.1003204007459667e-05 3.0026931106306298e-04 0.0000000000000000e+00  -4.6545591313825869e-05 3.1780105208913828e-04 4.9406564584124654e-324  -1.3861393468924551e-05 3.2685518652276357e-04 -4.9406564584124654e-324  -3.1535674408020025e-05 3.4002027153929020e-04 -4.9406564584124654e-324  -1.2640260438945835e-05 3.5899260751784818e-04 0.0000000000000000e+00  -5.3156980664981428e-05 2.8543623180001340e-04 0.0000000000000000e+00  -5.4562151415160165e-05 3.2041228515537778e-04 -4.9406564584124654e-324  -6.3003724464214821e-05 3.0353538674476790e-04 4.9406564584124654e-324  -1.0892482968701890e-05 2.3186006371721994e-04 -4.9406564584124654e-324  -1.2808511962546482e-05 2.3406186528644886e-04 4.9406564584124654e-324  -1.2859805947212129e-05 2.2808739535598319e-04 4.9406564584124654e-324  -1.6815196535328394e-05 2.2850851399554043e-04 4.9406564584124654e-324  -2.0868513190516945e-05 2.3762876188408421e-04 4.9406564584124654e-324  -1.9775413752678538e-05 2.4917117200450647e-04 4.9406564584124654e-324  -2.1625237284816410e-05 2.4378256609845439e-04 -4.9406564584124654e-324  -1.8624662179837090e-05 2.4529190130032324e-04 -4.9406564584124654e-324  -2.6163231684008153e-05 2.4303339873298554e-04 -4.9406564584124654e-324  -1.9895190976594936e-05 2.4045389407790496e-04 0.0000000000000000e+00  -2.0862873628549532e-05 2.4658153182541682e-04 4.9406564584124654e-324  -2.4840970714038261e-05 2.5714218059375645e-04 -4.9406564584124654e-324  -2.2659069835696021e-05 2.3730940919901126e-04 0.0000000000000000e+00  -2.3114348772549963e-05 2.5434622358892067e-04 -4.9406564584124654e-324  -2.1561188367164795e-05 2.4529130788260073e-04 4.9406564584124654e-324  -4.2991839049016906e-06 1.4364865023196922e-04 0.0000000000000000e+00  -3.3250737780510288e-06 1.4520706545292767e-04 0.0000000000000000e+00  -4.0083975933707650e-07 1.4680813222121486e-04 0.0000000000000000e+00  -1.3755221905574870e-06 1.3986073776866320e-04 -4.9406564584124654e-324  -2.5849178677621396e-06 1.4250273579438416e-04 4.9406564584124654e-324  -8.4862388120635695e-07 1.4403972762140827e-04 4.9406564584124654e-324  -1.4071291540696902e-06 1.3752607885674444e-04 -4.9406564584124654e-324  -9.4930139629376801e-07 1.4056595999542795e-04 -4.9406564584124654e-324  -1.3930366518118691e-06 1.3732892602732086e-04 0.0000000000000000e+00  -1.8291762483576345e-06 1.3504560310454336e-04 4.9406564584124654e-324  -1.5655745571733108e-06 1.3539351145114837e-04 0.0000000000000000e+00  -1.7484638300724731e-06 1.3339140999070185e-04 -4.9406564584124654e-324  -6.9074610282959239e-07 1.4278724586888787e-04 4.9406564584124654e-324  -9.2458696976425619e-07 1.3938559074461743e-04 4.9406564584124654e-324  -3.7924556961834981e-07 1.4302393242107475e-04 -4.9406564584124654e-324  3.8041867122090660e-06 2.0716211891535230e-04 4.9406564584124654e-324  1.6721266604886503e-06 2.0581896501974204e-04 4.9406564584124654e-324  1.8409660479241212e-06 2.0455424752573000e-04 4.9406564584124654e-324  2.1052936369002653e-06 2.0772373754611849e-04 -4.9406564584124654e-324  -5.1069104322815251e-07 2.1434016895601502e-04 0.0000000000000000e+00  1.9612595820640474e-06 2.0661817745974868e-04 0.0000000000000000e+00  -3.3882068528992185e-06 2.1007940720330038e-04 -4.9406564584124654e-324  -7.3160088732884863e-07 2.1417429590602440e-04 4.9406564584124654e-324  -1.3594943872586713e-06 2.1586620302571849e-04 0.0000000000000000e+00  -1.3904310802948591e-06 2.1334548265886623e-04 -4.9406564584124654e-324  6.8890469557479451e-07 2.1265905877409280e-04 0.0000000000000000e+00  -2.4503674900251771e-06 2.1978175782810843e-04 0.0000000000000000e+00  -5.9539740726135543e-06 2.1263644621524703e-04 0.0000000000000000e+00  -8.0738173478770722e-06 2.1458767169846841e-04 0.0000000000000000e+00  -1.0641574562998203e-05 2.1646003895350882e-04 -4.9406564584124654e-324  7.7680907902698851e-06 1.8328719368633690e-04 -4.9406564584124654e-324  8.3194551648318331e-06 1.8569572657805712e-04 0.0000000000000000e+00  8.2196306788572665e-06 1.8500354487972336e-04 4.9406564584124654e-324  8.3799694775300448e-06 1.8837324241386828e-04 -4.9406564584124654e-324  8.8576564691459669e-06 1.8815990140359527e-04 -4.9406564584124654e-324  8.5631624203289318e-06 1.8548523033440714e-04 -4.9406564584124654e-324  9.3309382330673950e-06 1.9039801292694845e-04 -4.9406564584124654e-324  8.6582385001399483e-06 1.8760435805034861e-04 4.9406564584124654e-324  8.3768641906003999e-06 1.8945275064708269e-04 -4.9406564584124654e-324  9.5567395457614709e-06 1.8879377811919457e-04 -4.9406564584124654e-324  7.6881084303077588e-06 1.9288186743864221e-04 0.0000000000000000e+00  7.6929218058239232e-06 1.9435035517263101e-04 4.9406564584124654e-324  9.4266982872839484e-06 1.8655602901951308e-04 0.0000000000000000e+00  9.6057503331218480e-06 1.9038348896717157e-04 -4.9406564584124654e-324  7.5158708339719507e-06 1.9048381049703711e-04 -4.9406564584124654e-324  -2.4200296862256509e-06 1.3117155177222412e-04 -4.9406564584124654e-324  -6.7010786628244070e-06 1.3513526885474588e-04 4.9406564584124654e-324  -1.9499753781070694e-0