<?xml version="1.0"?>
<VTKFile type="UnstructuredGrid"  version="0.1"  >
<UnstructuredGrid>
<Piece  NumberOfPoints="394" NumberOfCells="690">
<Points>
<DataArray  type="Float64"  NumberOfComponents="3"  format="ascii">18.99999999999849 2 0  18.74999999999811 2 0  18.87499999999887 1.71650635094611 0  18.62499999999849 1.71650635094611 0  18.49999999999773 2 0  18.74999999999925 1.433012701892219 0  18.37499999999811 1.71650635094611 0  18.49999999999887 1.433012701892219 0  18.24999999999849 1.433012701892219 0  18.24999999999736 2 0  18.12499999999773 1.71650635094611 0  17.99999999999698 2 0  18.62499999999962 1.149519052838329 0  18.37499999999925 1.149519052838329 0  18.5 0.8660254037844386 0  16.99999999999547 2 0  16.74999999999509 2 0  16.87499999999629 1.746520711162699 0  16.62499999999591 1.746520711162699 0  16.49999999999471 2 0  16.7499999999971 1.493041422325399 0  16.37499999999553 1.746520711162699 0  16.49999999999672 1.493041422325399 0  16.24999999999635 1.493041422325399 0  16.24999999999434 2 0  16.12499999999515 1.746520711162699 0  15.99999999999396 2 0  16.62499999999792 1.239562133488098 0  16.37499999999754 1.239562133488098 0  16.49999999999874 0.9860828446507974 0  12.99999999998939 2 0  12.74999999998901 2 0  12.87499999999136 1.74652071116254 0  12.62499999999098 1.74652071116254 0  12.49999999998862 2 0  12.74999999999334 1.49304142232508 0  12.3749999999906 1.74652071116254 0  12.49999999999295 1.49304142232508 0  12.24999999999257 1.49304142232508 0  12.24999999998824 2 0  12.12499999999022 1.74652071116254 0  11.99999999998786 2 0  12.62499999999531 1.239562133487619 0  12.37499999999493 1.239562133487619 0  12.49999999999728 0.9860828446501591 0  10.99999999998634 2 0  10.74999999998596 2 0  10.87439297711764 1.749732347235992 0  10.62439297711725 1.749732347235992 0  10.49999999998558 2 0  10.74878595424893 1.499464694471983 0  10.37439297711687 1.749732347235992 0  10.49878595424855 1.499464694471983 0  10.24878595424817 1.499464694471983 0  10.2499999999852 2 0  10.1243929771165 1.749732347235992 0  9.999999999984821 2 0  10.62317893138022 1.249197041707975 0  10.37317893137984 1.249197041707975 0  10.49757190851152 0.9989293889439668 0  14.99999999999243 2 0  14.74999999999205 2 0  14.87499999999383 1.74652071116262 0  14.62499999999345 1.74652071116262 0  14.49999999999167 2 0  14.74999999999522 1.493041422325239 0  14.37499999999307 1.74652071116262 0  14.49999999999484 1.493041422325239 0  14.24999999999446 1.493041422325239 0  14.24999999999129 2 0  14.12499999999268 1.74652071116262 0  13.99999999999091 2 0  14.62499999999661 1.239562133487858 0  14.37499999999624 1.239562133487858 0  14.49999999999801 0.9860828446504779 0  10.24702918641092 0.9928167955694513 0  10.12263620927924 1.24308444833346 0  9.996486464310319 0.986704202194936 0  9.998243232147571 1.493352101097468 0  9.872093487178645 1.236971854958944 0  9.873850255015896 1.743619753861476 0  16.99999999999999 0 0  17.24999999999999 0 0  17.1249999999998 0.2593847116342085 0  17.37499999999981 0.2593847116342085 0  17.49999999999999 0 0  17.24999999999962 0.518769423268417 0  17.62499999999981 0.2593847116342085 0  17.49999999999962 0.518769423268417 0  17.74999999999962 0.518769423268417 0  17.75 0 0  17.87499999999981 0.2593847116342085 0  18 0 0  17.37499999999944 0.7781541349026255 0  17.62499999999944 0.7781541349026255 0  17.49999999999925 1.037538846536834 0  14.99999999999999 0 0  15.24999999999999 0 0  15.12499999999929 0.2488402370542198 0  15.37499999999929 0.2488402370542198 0  15.49999999999999 0 0  15.24999999999858 0.4976804741084396 0  15.62499999999929 0.2488402370542198 0  15.49999999999858 0.4976804741084396 0  15.74999999999858 0.4976804741084396 0  15.74999999999999 0 0  15.87499999999929 0.2488402370542198 0  15.99999999999999 0 0  15.37499999999788 0.7465207111626594 0  15.62499999999788 0.7465207111626594 0  15.49999999999718 0.9953609482168791 0  12.99999999999999 0 0  13.24999999999999 0 0  13.12499999999898 0.2488402370541932 0  13.37499999999898 0.2488402370541932 0  13.49999999999999 0 0  13.24999999999796 0.4976804741083863 0  13.62499999999898 0.2488402370541932 0  13.49999999999796 0.4976804741083863 0  13.74999999999796 0.4976804741083863 0  13.74999999999999 0 0  13.87499999999898 0.2488402370541932 0  13.99999999999999 0 0  13.37499999999694 0.7465207111625796 0  13.62499999999694 0.7465207111625796 0  13.49999999999593 0.9953609482167727 0  10.99999999999998 0 0  11.24999999999998 0 0  11.12489882952011 0.2493755097330886 0  11.37489882952011 0.2493755097330886 0  11.49999999999998 0 0  11.24979765904023 0.4987510194661772 0  11.62489882952011 0.2493755097330886 0  11.49979765904023 0.4987510194661772 0  11.74979765904023 0.4987510194661772 0  11.74999999999998 0 0  11.87489882952011 0.2493755097330886 0  11.99999999999998 0 0  11.37469648856036 0.7481265291992658 0  11.62469648856036 0.7481265291992658 0  11.49959531808049 0.9975020389323543 0  12.24989882951808 0.9889376432207079 0  12.12489882951573 1.242416932058168 0  11.99979765903888 0.9917924417912567 0  11.99989882951337 1.495896220895628 0  11.87479765903653 1.245271730628717 0  11.74979765903418 1.498751019466177 0  11.87489882951102 1.749375509733089 0  11.74969648855969 0.9946472403618055 0  11.62469648855733 1.248126529199266 0  14.24999999999749 0.9884023705420516 0  14.12499999999572 1.241881659379432 0  13.99999999999697 0.9907218964336253 0  13.99999999999394 1.495360948216813 0  13.87499999999519 1.244201185271006 0  13.74999999999342 1.497680474108386 0  13.87499999999217 1.748840237054193 0  13.74999999999645 0.993041422325199 0  13.62499999999467 1.246520711162579 0  16.24999999999835 0.9884023705423178 0  16.12499999999715 1.241881659379618 0  15.99999999999796 0.9907218964338382 0  15.99999999999596 1.495360948216919 0  15.87499999999676 1.244201185271139 0  15.74999999999557 1.49768047410844 0  15.87499999999477 1.74884023705422 0  15.74999999999757 0.9930414223253587 0  15.62499999999637 1.246520711162659 0  18.24999999999981 0.9089037644725375 0  18.12499999999905 1.192397413526428 0  17.99999999999962 0.9517821251606363 0  17.9999999999983 1.475891062580318 0  17.87499999999887 1.235275774214527 0  17.74999999999812 1.518769423268417 0  17.87499999999755 1.759384711634209 0  17.74999999999944 0.9946604858487351 0  17.62499999999869 1.278154134902626 0  17.12499999999642 1.759384711634209 0  16.99999999999723 1.505905422796908 0  17.24999999999736 1.518769423268417 0  16.87499999999805 1.252426133959607 0  17.12499999999818 1.265290134431116 0  16.99999999999899 1.011810845593816 0  16.74999999999887 0.9989468451223066 0  17.37499999999831 1.278154134902626 0  17.24999999999912 1.024674846065325 0  15.12499999999362 1.74884023705422 0  14.99999999999501 1.495360948216839 0  15.2499999999948 1.49768047410844 0  14.87499999999641 1.241881659379459 0  15.1249999999962 1.244201185271059 0  14.99999999999759 0.9907218964336786 0  14.7499999999978 0.9884023705420782 0  15.37499999999599 1.246520711162659 0  15.24999999999739 0.9930414223252788 0  13.12499999999103 1.748840237054193 0  12.999999999993 1.495360948216733 0  13.24999999999266 1.497680474108386 0  12.87499999999497 1.241881659379273 0  13.12499999999463 1.244201185270926 0  12.99999999999661 0.9907218964334659 0  12.74999999999694 0.9884023705418125 0  13.37499999999429 1.246520711162579 0  13.24999999999627 0.9930414223251193 0  11.12489882950988 1.749375509733089 0  10.99929180664117 1.49910785696908 0  11.24979765903342 1.498751019466177 0  10.87368478377247 1.248840204205072 0  11.12419063616471 1.248483366702169 0  10.998583613296 0.9982157139381606 0  10.74807776090376 0.9985725514410637 0  11.37469648855695 1.248126529199266 0  11.24908946568825 0.9978588764352574 0  16.62499999999905 0.7395621334880981 0  16.87499999999918 0.7524261339596072 0  16.74999999999936 0.4930414223253987 0  16.99999999999949 0.5059054227969079 0  17.12499999999931 0.7652901344311164 0  16.87499999999968 0.2465207111626994 0  18.125 0.2165063509461096 0  17.99999999999981 0.4758910625803182 0  18.25 0.4330127018922193 0  18.12499999999981 0.6923974135264278 0  17.87499999999962 0.7352757742145266 0  18.375 0.649519052838329 0  16.12499999999968 0.2465207111626994 0  15.99999999999897 0.4953609482169191 0  16.24999999999936 0.4930414223253987 0  16.12499999999866 0.7418816593796185 0  15.87499999999827 0.7442011852711389 0  16.37499999999905 0.7395621334880981 0  14.6249999999985 0.7395621334878584 0  14.8749999999983 0.7418816593794588 0  14.749999999999 0.493041422325239 0  14.99999999999879 0.4953609482168393 0  15.12499999999809 0.7442011852710591 0  14.8749999999995 0.2465207111626195 0  14.1249999999995 0.2465207111626195 0  13.99999999999848 0.4953609482168126 0  14.249999999999 0.493041422325239 0  14.12499999999799 0.7418816593794322 0  13.87499999999747 0.7442011852710058 0  14.3749999999985 0.7395621334878584 0  12.62499999999796 0.7395621334876192 0  12.87499999999762 0.7418816593792728 0  12.74999999999864 0.4930414223250795 0  12.9999999999983 0.4953609482167329 0  13.12499999999728 0.744201185270926 0  12.87499999999931 0.2465207111625398 0  12.12499999999931 0.2465207111625398 0  11.99989882951943 0.4958962208956283 0  12.24999999999863 0.4930414223250795 0  12.12489882951876 0.7424169320581682 0  11.87479765903956 0.7452717306287169 0  12.37499999999796 0.7395621334876192 0  10.62317893138363 0.7491970417079751 0  10.87368478377588 0.7488402042050719 0  10.74878595425575 0.4994646944719834 0  10.99929180664799 0.4991078569690803 0  11.12419063616812 0.7484833667021689 0  10.87439297712787 0.2497323472359917 0  19.08563708345907 1.816579429209366 0  18.96063708345945 1.533085780155476 0  19.17127416691965 1.633158858418732 0  18.83563708345983 1.249592131101585 0  19.04627416692003 1.349665209364842 0  18.9212741669204 1.066171560310951 0  18.7106370834602 0.9660984820476949 0  19.25691125038023 1.449738287628098 0  19.13191125038061 1.166
[...]
<PointData  Vectors="t"> 
<DataArray  type="Float64"  Name="t"  NumberOfComponents="3" format="ascii">-8.8555813325543533e-05 4.2550565262772005e-04 4.9406564584124654e-324  -8.8994200659234083e-05 4.0521734213045090e-04 -4.9406564584124654e-324  -8.4455880021041367e-05 4.2310492814946158e-04 0.0000000000000000e+00  -7.8125605953371805e-05 4.0245288281452946e-04 -4.9406564584124654e-324  -9.4839417004696078e-05 3.9613071356821284e-04 0.0000000000000000e+00  -7.0059318447493352e-05 4.0363087981269366e-04 -4.9406564584124654e-324  -7.5279247358113453e-05 3.7040675311489102e-04 0.0000000000000000e+00  -7.6386240169012265e-05 3.9186660274890368e-04 4.9406564584124654e-324  -6.6617407355498972e-05 3.5923600513476054e-04 -4.9406564584124654e-324  -8.7329778329250717e-05 3.6849983168583841e-04 -4.9406564584124654e-324  -7.9032838853315869e-05 3.5732421799077496e-04 4.9406564584124654e-324  -8.0696405245749285e-05 3.4651178911440840e-04 0.0000000000000000e+00  -6.3532473383123785e-05 4.0185472916817456e-04 0.0000000000000000e+00  -6.3073309097176671e-05 3.6543567563043436e-04 0.0000000000000000e+00  -6.2395325037160125e-05 3.8878344197410263e-04 0.0000000000000000e+00  -6.0872159941086013e-05 3.1060461263863879e-04 4.9406564584124654e-324  -4.6827226735755751e-05 3.0666266072778008e-04 -4.9406564584124654e-324  -4.7340511565168804e-05 3.0091992438198548e-04 -4.9406564584124654e-324  -4.8805871963201246e-05 3.0058945032049290e-04 4.9406564584124654e-324  -4.4995950847113142e-05 3.0064108616388385e-04 0.0000000000000000e+00  -3.8000876067210233e-05 2.9765390564045411e-04 4.9406564584124654e-324  -3.6442837169131599e-05 2.9780069946356360e-04 0.0000000000000000e+00  -3.4760521673691630e-05 2.9169108888189610e-04 4.9406564584124654e-324  -3.6043741228034978e-05 2.8879270305884488e-04 4.9406564584124654e-324  -4.8938627861614809e-05 2.9481833137205211e-04 0.0000000000000000e+00  -3.4557869086215240e-05 2.9042972477257863e-04 4.9406564584124654e-324  -3.8846720121057017e-05 2.9344333750986500e-04 4.9406564584124654e-324  -3.8382264164400443e-05 2.8891206247776770e-04 4.9406564584124654e-324  -2.5109669245556620e-05 2.8798613383697097e-04 -4.9406564584124654e-324  -2.5701739609051727e-05 2.8140100111878651e-04 0.0000000000000000e+00  -1.1862576599076407e-05 2.2076184992502804e-04 0.0000000000000000e+00  -1.2726295526798667e-05 2.1837978466508122e-04 4.9406564584124654e-324  -1.0297679760001842e-05 2.1778216059185836e-04 -4.9406564584124654e-324  -9.5804315782052545e-06 2.1725384149685613e-04 0.0000000000000000e+00  -1.1228886996202968e-05 2.1569550368167689e-04 4.9406564584124654e-324  -8.2596691733846425e-06 2.1719282438130739e-04 -4.9406564584124654e-324  -9.9213447726640692e-06 2.1352087251552709e-04 4.9406564584124654e-324  -7.0552128809772608e-06 2.1460017265575746e-04 -4.9406564584124654e-324  -6.2822994290641580e-06 2.1360326882220542e-04 0.0000000000000000e+00  -1.0731705706097601e-05 2.1455373331082073e-04 0.0000000000000000e+00  -9.0153713908627749e-06 2.1171977828466596e-04 0.0000000000000000e+00  -1.1856205842568630e-05 2.0852135947483779e-04 0.0000000000000000e+00  -4.8231135033250294e-06 2.1570542367785792e-04 -4.9406564584124654e-324  -3.8526978941899062e-06 2.1197187967171241e-04 0.0000000000000000e+00  9.4106968629970071e-07 2.1252946171174545e-04 4.9406564584124654e-324  -1.0595111604982583e-05 1.9671830223507773e-04 -4.9406564584124654e-324  -9.1221512622170887e-06 1.9684355466925764e-04 -4.9406564584124654e-324  -9.7383747605594760e-06 1.9760986263134863e-04 -4.9406564584124654e-324  -5.3212649721336446e-06 1.9531668580334381e-04 0.0000000000000000e+00  -1.3078282802534441e-05 1.9493311962130451e-04 4.9406564584124654e-324  2.1679722803334608e-06 1.9024203666007959e-04 0.0000000000000000e+00  -9.4038172569070711e-07 1.8570211510889604e-04 4.9406564584124654e-324  1.7248064370972554e-06 1.8918946352652650e-04 0.0000000000000000e+00  6.6805208554805368e-06 1.8355562493348263e-04 -4.9406564584124654e-324  -8.7374862941636944e-06 1.8836133625484692e-04 4.9406564584124654e-324  -2.1002494966021165e-06 1.8084191090242386e-04 -4.9406564584124654e-324  -3.8403751420358646e-06 1.8362167609374148e-04 4.9406564584124654e-324  7.9372464157140313e-06 1.9057467078790964e-04 0.0000000000000000e+00  6.7735800195550805e-06 1.8338932840663986e-04 0.0000000000000000e+00  6.8790642461193368e-06 1.8745549134255806e-04 -4.9406564584124654e-324  -2.7954524452447220e-05 2.4615404461162256e-04 4.9406564584124654e-324  -3.0055097775321720e-05 2.3618236744331716e-04 -4.9406564584124654e-324  -1.9738649855265276e-05 2.3323347221964691e-04 0.0000000000000000e+00  -1.6358304649505680e-05 2.3049114006729187e-04 -4.9406564584124654e-324  -2.0074378824466982e-05 2.3198255487597225e-04 4.9406564584124654e-324  -1.5364102754006994e-05 2.2924797379843175e-04 0.0000000000000000e+00  -1.8952502293384644e-05 2.2360230883513126e-04 0.0000000000000000e+00  -1.2016172051853714e-05 2.2742145503726923e-04 -4.9406564584124654e-324  -1.0825579122681560e-05 2.2438652320390414e-04 0.0000000000000000e+00  -1.7094483712510262e-05 2.2861771977291466e-04 -4.9406564584124654e-324  -1.4450284439340898e-05 2.2406969034096817e-04 0.0000000000000000e+00  -1.7245188753632050e-05 2.2457359354654887e-04 4.9406564584124654e-324  -3.9873348896407827e-06 2.3093288689459638e-04 -4.9406564584124654e-324  -7.4601517211524742e-06 2.2317524868586754e-04 0.0000000000000000e+00  -1.2324181611522649e-06 2.2970605866324729e-04 0.0000000000000000e+00  7.7928933668475321e-06 1.8512032093456022e-04 -4.9406564584124654e-324  6.6612769927978877e-06 1.8185128678954352e-04 4.9406564584124654e-324  5.6138720242081286e-06 1.8136064606050551e-04 0.0000000000000000e+00  6.0331859650056555e-06 1.8207947886379443e-04 0.0000000000000000e+00  5.3964384523487885e-06 1.7994204130988172e-04 -4.9406564584124654e-324  1.6137217599812793e-07 1.7680469241598330e-04 -4.9406564584124654e-324  -2.1192533211249215e-05 2.8606290064463831e-04 -4.9406564584124654e-324  -1.2807870184466911e-05 2.7581673055260747e-04 4.9406564584124654e-324  -2.6895498069341561e-05 2.7701800813774679e-04 -4.9406564584124654e-324  -2.9814586402669698e-05 2.8361860478743505e-04 0.0000000000000000e+00  -1.3452570082728438e-05 2.9343873078376155e-04 4.9406564584124654e-324  -2.8152631651463004e-05 2.7895789149795335e-04 -4.9406564584124654e-324  -2.6839728836634808e-05 2.9068688088981944e-04 -4.9406564584124654e-324  -3.1639141102299583e-05 2.9216222639337643e-04 0.0000000000000000e+00  -4.2849013046246181e-05 3.0556067913393910e-04 -4.9406564584124654e-324  -8.2413279046254116e-06 3.1279459609284146e-04 4.9406564584124654e-324  -2.4305382475953831e-05 3.1187102972546620e-04 -4.9406564584124654e-324  -4.1958571809481018e-06 3.2187588272689684e-04 0.0000000000000000e+00  -4.6520486778948186e-05 2.9148996513404281e-04 4.9406564584124654e-324  -4.2735782479811065e-05 2.9927238154592826e-04 4.9406564584124654e-324  -4.3539174212972151e-05 2.9787100574801102e-04 0.0000000000000000e+00  3.2473748265894727e-06 2.3848721646824490e-04 4.9406564584124654e-324  1.2190803785343013e-06 2.4072326685132354e-04 4.9406564584124654e-324  1.2386962641620312e-06 2.3462905101595872e-04 -4.9406564584124654e-324  -2.5115828329352978e-06 2.3556998844906555e-04 4.9406564584124654e-324  -6.3555273613165438e-06 2.4425337368740024e-04 0.0000000000000000e+00  2.0043644438448498e-06 2.5433746151786899e-04 -4.9406564584124654e-324  -6.9634758003786828e-06 2.5031567854879005e-04 0.0000000000000000e+00  1.1522131361045550e-06 2.5245102439710760e-04 -4.9406564584124654e-324  -6.0332573323987765e-06 2.4989844815958873e-04 4.9406564584124654e-324  -5.2223292056256684e-06 2.4694768879196120e-04 4.9406564584124654e-324  -5.9841169772789602e-06 2.5299245808058497e-04 -4.9406564584124654e-324  -1.0378238768071175e-05 2.6446633857348710e-04 -4.9406564584124654e-324  2.1897514133106951e-06 2.4660498087662627e-04 0.0000000000000000e+00  2.7436720813868007e-07 2.5919660081765204e-04 4.9406564584124654e-324  -6.2929280861083194e-06 2.5845895362013727e-04 0.0000000000000000e+00  9.4917735961465899e-06 2.1662796231857186e-04 -4.9406564584124654e-324  7.9163444200678784e-06 2.1483307728032921e-04 4.9406564584124654e-324  7.7185223880103492e-06 2.1407074952542395e-04 -4.9406564584124654e-324  8.4900664849450129e-06 2.1651598783073363e-04 -4.9406564584124654e-324  5.8402247982122893e-06 2.2299482494650381e-04 4.9406564584124654e-324  8.1660438157273434e-06 2.1609402765539868e-04 -4.9406564584124654e-324  2.9913208072950422e-06 2.1841590610993653e-04 -4.9406564584124654e-324  5.1775769697435890e-06 2.2295547819141138e-04 -4.9406564584124654e-324  4.9422372270442714e-06 2.2366768733892361e-04 0.0000000000000000e+00  6.4406095130960416e-06 2.2239780705855404e-04 4.9406564584124654e-324  6.8998683981175721e-06 2.2058374570463446e-04 4.9406564584124654e-324  5.4249557491763726e-06 2.2423537191568318e-04 4.9406564584124654e-324  9.9089654616137426e-07 2.2083675490561997e-04 -4.9406564584124654e-324  4.6345216975089224e-07 2.2045201723048692e-04 -4.9406564584124654e-324  -2.8483097661765754e-06 2.2272543264600808e-04 0.0000000000000000e+00  9.2372317716950723e-06 1.9475648600925601e-04 0.0000000000000000e+00  9.8484464192734633e-06 1.9710627888795871e-04 4.9406564584124654e-324  9.7489199795695116e-06 1.9660577556910859e-04 0.0000000000000000e+00  9.9256905615612750e-06 1.9897662700241853e-04 0.0000000000000000e+00  1.0279498060513997e-05 1.9901221122681703e-04 0.0000000000000000e+00  9.9472061005267900e-06 1.9677016644784664e-04 0.0000000000000000e+00  1.0628766091406969e-05 2.0080688214039604e-04 0.0000000000000000e+00  1.0303782049014566e-05 1.9857387147873215e-04 4.9406564584124654e-324  9.9584068688813786e-06 2.0029537450932402e-04 0.0000000000000000e+00  1.2206134611522996e-05 2.0122859266917585e-04 4.9406564584124654e-324  9.5593636881783630e-06 2.0304044151398760e-04 0.0000000000000000e+00  1.0463144254575254e-05 2.0258308383979185e-04 0.0000000000000000e+00  1.0373915885200335e-05 1.9744272865285925e-04 4.9406564584124654e-324  1.0611907329040016e-05 2.0054645135594734e-04 4.9406564584124654e-324  9.1768047066523127e-06 2.0085956880701991e-04 -4.9406564584124654e-324  8.3715515451105792e-07 2.1073576463879684e-04 -4.9406564584124654e-324  -1.9410594147338925e-06 2.0937710996272175e-04 4.9406564584124654e-324  2.8969346619439001e-06 2.0271832349548602e-04 0.0000000000000000e+00  -5.3060103164008357e-06 2.0738574102885027e-04 -4.9406564584124654e-324  1.1217116805858872e-08 2.0774575140936795e-04 0.0000000000000000e+00  -4.1822846035897212e-06 2.0646339343823294e-04 0.0000000000000000e+00  -8.1883513234014741e-06 2.1075157968158630e-04 0.0000000000000000e+00  6.2206168462712213e-06 2.0228436585674058e-04 -4.9406564584124654e-324  1.8307887190404168e-06 2.0267064114013944e-04 4.9406564584124654e-324  -1.9476335250330510e-06 2.2400159969412055e-04 0.0000000000000000e+00  -6.6886709457183025e-06 2.2249070552670866e-04 -4.9406564584124654e-324  -3.5956553995259658e-06 2.2135415776874704e-04 4.9406564584124654e-324  -1.2205648026526163e-05 2.2108343739736899e-04 -4.9406564584124654e-324  -6.3813976551762930e-06 2.2229361019835550e-04 4.9406564584124654e-324  -1.0053896181997424e-05 2.2253811681080871e-04 -4.9406564584124654e-324  -1.2833056392957077e-05 2.2367043781363569e-04 0.0000000000000000e+00  -2.2705251885975928e-06 2.2225782722820828e-04 0.0000000000000000e+00  -7.7189047413840956e-06 2.2005909144892142e-04 4.9406564584124654e-324  -2.5252810656582323e-05 2.7740546966224892e-04 4.9406564584124654e-324  -2.0676520986873092e-05 2.8050691261079751e-04 0.0000000000000000e+00  -1.1354904500572114e-05 2.7552237763771667e-04 0.0000000000000000e+00  -2.4167883397458951e-05 2.8675386249448810e-04 -4.9406564584124654e-324  -2.1418052595898896e-05 2.7639340647807981e-04 4.9406564584124654e-324  -2.0497114938385138e-05 2.7691453755112239e-04 0.0000000000000000e+00  -3.7920475122590776e-05 2.8507993032548097e-04 4.9406564584124654e-324  -6.7867415349722039e-06 2.6492360943268896e-04 0.0000000000000000e+00  -8.0330436858188267e-06 2.6740303404927885e-04 0.0000000000000000e+00  -5.3600690931152354e-05 3.5262356771190135e-04 -4.9406564584124654e-324  -6.8359184786702989e-05 3.5026739114607590e-04 4.9406564584124654e-324  -5.6121778429390032e-05 3.2688402979812544e-04 4.9406564584124654e-324  -6.4259305508081665e-05 3.3317687608590350e-04 -4.9406564584124654e-324  -5.7230985027730524e-05 3.1912794319095795e-04 0.0000000000000000e+00  -6.7275757108773931e-05 3.2501652935853603e-04 0.0000000000000000e+00  -6.7643611624153575e-05 3.2989467461366372e-04 4.9406564584124654e-324  -5.8262639274754849e-05 3.1325573656213569e-04 0.0000000000000000e+00  -5.5601680316418419e-05 3.1042849046414523e-04 -4.9406564584124654e-324  -4.9828177744395440e-05 3.0595042042156549e-04 -4.9406564584124654e-324  -5.2406542095113420e-05 3.0004978922816734e-04 0.0000000000000000e+00  -5.0572177473304264e-05 3.0113460875370000e-04 0.0000000000000000e+00  -3.7764577093356927e-05 2.9087441195864758e-04 -4.9406564584124654e-324  -4.1217930375866668e-05 2.9539782750569177e-04 -4.9406564584124654e-324  -4.3896967032559262e-05 2.9120810079243602e-04 0.0000000000000000e+00  -3.0255258768504062e-05 2.8569590447595554e-04 0.0000000000000000e+00  -5.5958901307325535e-05 3.0083835998766581e-04 -4.9406564584124654e-324  -4.1272998952127676e-05 2.9080094453984019e-04 0.0000000000000000e+00  -3.0720676880695798e-05 2.4197186351909678e-04 4.9406564584124654e-324  -8.7233714230038468e-06 2.3868327729304999e-04 4.9406564584124654e-324  -1.1172273857934977e-05 2.4713333901886237e-04 4.9406564584124654e-324  -4.4728718219091858e-06 2.3408467611684300e-04 -4.9406564584124654e-324  -7.9859476570388081e-06 2.3804966407094450e-04 4.9406564584124654e-324  -5.4180251021100157e-07 2.3699449284672077e-04 -4.9406564584124654e-324  -1.2580552083106557e-06 2.3049200001868625e-04 -4.9406564584124654e-324  -5.0973698239321936e-06 2.5517546747778528e-04 -4.9406564584124654e-324  2.8894824482561089e-07 2.4672857776924622e-04 0.0000000000000000e+00  -1.1111260804316497e-05 2.2169377723216867e-04 4.9406564584124654e-324  -8.6299523834297084e-06 2.1964221358202469e-04 0.0000000000000000e+00  -9.6593390108544858e-06 2.1938691485684576e-04 4.9406564584124654e-324  -5.5037343771492498e-06 2.1639463413072307e-04 0.0000000000000000e+00  -6.2104897031636143e-06 2.2071449095147129e-04 4.9406564584124654e-324  -2.7188411119699805e-06 2.1826768552183479e-04 0.0000000000000000e+00  -1.3354628576367420e-06 2.1512489445665476e-04 0.0000000000000000e+00  -6.5424336923194535e-06 2.2104397753037271e-04 -4.9406564584124654e-324  -3.3813072799536595e-06 2.1822771721423178e-04 0.0000000000000000e+00  -1.0380230050783132e-05 1.9609029758589096e-04 4.9406564584124654e-324  -2.7468138461376570e-06 1.9484129955034597e-04 0.0000000000000000e+00  -3.0918956220522314e-06 1.9641611232289961e-04 0.0000000000000000e+00  5.6064763294362360e-06 1.9088286533906074e-04 4.9406564584124654e-324  8.8896926881890471e-06 1.9481504017026182e-04 -4.9406564584124654e-324  8.6294787342201738e-06 1.9188723804047610e-04 -4.9406564584124654e-324  8.9902182356703327e-06 1.8946916645956138e-04 4.9406564584124654e-324  3.2650616368906183e-06 2.0099855346399144e-04 4.9406564584124654e-324  9.4666662974840094e-06 1.9376886805035472e-04 0.0000000000000000e+00  -3.2282167324572878e-05 2.7686219329371589e-04 0.0000000000000000e+00  -2.8261729388857156e-05 2.8114657130700493e-04 -4.9406564584124654e-324  -2.0705381250155079e-05 2.7968237162288471e-04 -4.9406564584124654e-324  -3.2858115828713458e-05 2.8540737141987104e-04 0.0000000000000000e+00  -3.1103667866591800e-05 2.8605025660481448e-04 -4.9406564584124654e-324  -1.5473571894260341e-05 2.7177187289372391e-04 0.0000000000000000e+00  -2.2342423035231035e-05 3.4589579119350669e-04 -4.9406564584124654e-324  -3.4568224476337405e-05 3.2009023690804926e-04 -4.9406564584124654e-324  -3.0758892978306452e-05 3.4441911894184818e-04 4.9406564584124654e-324  -5.3302269595659720e-05 3.4866077880729593e-04 4.9406564584124654e-324  -4.1257888113496104e-05 3.0804850476590377e-04 -4.9406564584124654e-324  -4.8117315190788461e-05 3.6322981915424087e-04 4.9406564584124654e-324  -1.4872395323474171e-05 2.5740066152462140e-04 4.9406564584124654e-324  -7.3553606798630132e-06 2.6624764568488994e-04 4.9406564584124654e-324  -1.7416146285048732e-05 2.6119320770206730e-04 0.0000000000000000e+00  -1.3330489319399401e-05 2.6784039092388857e-04 0.0000000000000000e+00  -1.0102133633611373e-05 2.6305510299521961e-04 4.9406564584124654e-324  -1.8913294133197131e-05 2.7400324566296576e-04 0.0000000000000000e+00  1.8089264118871168e-06 2.2909358039281864e-04 0.0000000000000000e+00  -6.7303846830453518e-07 2.3465235321576384e-04 4.9406564584124654e-324  3.3189989404424763e-06 2.2903273051940652e-04 0.0000000000000000e+00  2.5783178046366458e-06 2.3687084701304575e-04 0.0000000000000000e+00  5.0761217378164213e-07 2.3851583829362998e-04 0.0000000000000000e+00  3.3847370649879675e-06 2.3230130987725208e-04 -4.9406564584124654e-324  3.9592492052638370e-06 2.2234636507333127e-04 0.0000000000000000e+00  2.7324798154268888e-06 2.2348450559318698e-04 -4.9406564584124654e-324  3.8743968003923143e-06 2.2421607560196209e-04 0.0000000000000000e+00  3.4640438635647086e-06 2.2207417318440538e-04 4.9406564584124654e-324  1.8759664122619695e-06 2.2219108033584927e-04 0.0000000000000000e+00  2.2640014823569997e-06 2.2780602154946324e-04 0.0000000000000000e+00  3.9361088733564787e-06 2.1251695557374933e-04 4.9406564584124654e-324  2.6450683745390794e-06 2.1365153627406447e-04 4.9406564584124654e-324  1.1137906749716719e-05 2.1151607219824955e-04 4.9406564584124654e-324  8.8835950542853934e-06 2.1631610035292465e-04 -4.9406564584124654e-324  1.4572028271102866e-06 2.2026033152736674e-04 4.9406564584124654e-324  1.1195807598003107e-05 2.1222575654080577e-04 0.0000000000000000e+00  1.1356229806876193e-05 2.0536778406054108e-04 0.0000000000000000e+00  1.1595734460854632e-05 2.0174226819681920e-04 4.9406564584124654e-324  1.1083817756663490e-05 2.0564111430135905e-04 4.9406564584124654e-324  1.0922919343052613e-05 2.0600722170534475e-04 -4.9406564584124654e-324  1.0777000969781442e-05 2.0285245807420284e-04 4.9406564584124654e-324  6.7765701249890288e-06 2.0945865624900488e-04 0.0000000000000000e+00  7.7579736520260139e-06 1.8844784927151559e-04 4.9406564584124654e-324  9.0889707036931345e-06 1.9276666280214412e-04 4.9406564584124654e-324  7.1358607541837878e-06 1.9269224610690821e-04 -4.9406564584124654e-324  9.7874335080671677e-06 1.9472890381765938e-04 0.0000000000000000e+00  9.5989261859283804e-06 1.9455170573191041e-04 0.0000000000000000e+00  8.6549117892581640e-06 1.9217106746845182e-04 -4.9406564584124654e-324  -8.0400321203066209e-05 4.2966336989465445e-04 0.0000000000000000e+00  -7.0313207666532736e-05 4.2993230387543437e-04 -4.9406564584124654e-324  -7.7414351242835640e-05 4.4431152777365206e-04 -4.9406564584124654e-324  -7.0333680650731299e-05 4.2613979270393913e-04 -4.9406564584124654e-324  -6.5355780243315405e-05 4.3344970754166542e-04 4.9406564584124654e-324  -6.3772456848827877e-05 4.2358902499763025e-04 -4.9406564584124654e-324  -5.6165268110364288e-05 4.0238914504696675e-04 0.0000000000000000e+00  -6.9260025306322411e-05 4.4366499412772456e-04 4.9406564584124654e-324  -6.9198747503431600e-05 4.4201528010185645e-04 0.0000000000000000e+00  -6.6961482260310528e-05 4.3943666380198969e-04 4.9406564584124654e-324  -1.2475647623173264e-05 2.0653309106601176e-04 0.0000000000000000e+00  -7.9876071763623702e-06 2.0362031995162325e-04 -4.9406564584124654e-324  -1.2969637876742413e-05 2.0457932059724773e-04 0.0000000000000000e+00  -1.0078806854637957e-05 2.0045757390805362e-04 -4.9406564584124654e-324  -2.8445866313895294e-06 2.0573825400002339e-04 4.9406564584124654e-324  -1.0084229987997551e-05 1.9669702311539135e-04 4.9406564584124654e-324  -1.3852659497718762e-05 2.2489781600952387e-04 -4.9406564584124