<?xml version="1.0"?>
<VTKFile type="UnstructuredGrid"  version="0.1"  >
<UnstructuredGrid>
<Piece  NumberOfPoints="777" NumberOfCells="1376">
<Points>
<DataArray  type="Float64"  NumberOfComponents="3"  format="ascii">3.999999999999964 0 0  4.249999999999965 0 0  4.124999999998478 0.2534792888374535 0  4.374999999998479 0.2534792888374535 0  4.499999999999966 0 0  4.249999999996992 0.506958577674907 0  4.624999999998479 0.2534792888374535 0  4.499999999996993 0.506958577674907 0  4.749999999996994 0.506958577674907 0  4.749999999999967 0 0  4.874999999998481 0.2534792888374535 0  4.999999999999968 0 0  4.374999999995506 0.7604378665123606 0  4.624999999995506 0.7604378665123606 0  4.499999999994019 1.013917155349814 0  5.99999999999997 0 0  6.249999999999971 0 0  6.124999999997403 0.2534792888376092 0  6.374999999997405 0.2534792888376092 0  6.499999999999972 0 0  6.249999999994837 0.5069585776752185 0  6.624999999997405 0.2534792888376092 0  6.499999999994838 0.5069585776752185 0  6.749999999994839 0.5069585776752185 0  6.749999999999972 0 0  6.874999999997407 0.2534792888376092 0  6.999999999999973 0 0  6.374999999992271 0.7604378665128277 0  6.624999999992271 0.7604378665128277 0  6.499999999989704 1.013917155350437 0  1.999999999999982 0 0  2.24999999999998 0 0  2.12499999999946 0.2613818370536612 0  2.374999999999459 0.2613818370536612 0  2.499999999999979 0 0  2.249999999998939 0.5227636741073225 0  2.624999999999457 0.2613818370536612 0  2.499999999998937 0.5227636741073225 0  2.749999999998935 0.5227636741073225 0  2.749999999999977 0 0  2.874999999999455 0.2613818370536612 0  2.999999999999975 0 0  2.374999999998417 0.7841455111609837 0  2.624999999998415 0.7841455111609837 0  2.499999999997895 1.045527348214645 0  1.999999999998379 2 0  1.74999999999856 2 0  1.874999999998781 1.716506350946107 0  1.624999999998962 1.716506350946107 0  1.499999999998741 2 0  1.749999999999184 1.433012701892215 0  1.374999999999143 1.716506350946107 0  1.499999999999365 1.433012701892215 0  1.249999999999545 1.433012701892215 0  1.249999999998922 2 0  1.124999999999324 1.716506350946107 0  0.9999999999991025 2 0  1.624999999999586 1.149519052838322 0  1.374999999999767 1.149519052838322 0  1.499999999999988 0.8660254037844294 0  7.999999999999975 0 0  8.249999999999975 0 0  8.124690294450405 0.261918262795331 0  8.374690294450405 0.261918262795331 0  8.499999999999975 0 0  8.249380588900834 0.523836525590662 0  8.624690294450405 0.261918262795331 0  8.499380588900834 0.523836525590662 0  8.749380588900834 0.523836525590662 0  8.749999999999975 0 0  8.874690294450406 0.261918262795331 0  8.999999999999977 0 0  8.374070883351264 0.785754788385993 0  8.624070883351264 0.785754788385993 0  8.498761177801693 1.047673051181324 0  18.99999999999849 2 0  18.74999999999811 2 0  18.87499999999887 1.71650635094611 0  18.62499999999849 1.71650635094611 0  18.49999999999773 2 0  18.74999999999925 1.433012701892219 0  18.37499999999811 1.71650635094611 0  18.49999999999887 1.433012701892219 0  18.24999999999849 1.433012701892219 0  18.24999999999736 2 0  18.12499999999773 1.71650635094611 0  17.99999999999698 2 0  18.62499999999962 1.149519052838329 0  18.37499999999925 1.149519052838329 0  18.5 0.8660254037844386 0  16.99999999999547 2 0  16.74999999999509 2 0  16.87499999999629 1.746520711162699 0  16.62499999999591 1.746520711162699 0  16.49999999999471 2 0  16.7499999999971 1.493041422325399 0  16.37499999999553 1.746520711162699 0  16.49999999999672 1.493041422325399 0  16.24999999999635 1.493041422325399 0  16.24999999999434 2 0  16.12499999999515 1.746520711162699 0  15.99999999999396 2 0  16.62499999999792 1.239562133488098 0  16.37499999999754 1.239562133488098 0  16.49999999999874 0.9860828446507974 0  12.99999999998939 2 0  12.74999999998901 2 0  12.87499999999136 1.74652071116254 0  12.62499999999098 1.74652071116254 0  12.49999999998862 2 0  12.74999999999334 1.49304142232508 0  12.3749999999906 1.74652071116254 0  12.49999999999295 1.49304142232508 0  12.24999999999257 1.49304142232508 0  12.24999999998824 2 0  12.12499999999022 1.74652071116254 0  11.99999999998786 2 0  12.62499999999531 1.239562133487619 0  12.37499999999493 1.239562133487619 0  12.49999999999728 0.9860828446501591 0  10.99999999998634 2 0  10.74999999998596 2 0  10.87439297711764 1.749732347235992 0  10.62439297711725 1.749732347235992 0  10.49999999998558 2 0  10.74878595424893 1.499464694471983 0  10.37439297711687 1.749732347235992 0  10.49878595424855 1.499464694471983 0  10.24878595424817 1.499464694471983 0  10.2499999999852 2 0  10.1243929771165 1.749732347235992 0  9.999999999984821 2 0  10.62317893138022 1.249197041707975 0  10.37317893137984 1.249197041707975 0  10.49757190851152 0.9989293889439668 0  14.99999999999243 2 0  14.74999999999205 2 0  14.87499999999383 1.74652071116262 0  14.62499999999345 1.74652071116262 0  14.49999999999167 2 0  14.74999999999522 1.493041422325239 0  14.37499999999307 1.74652071116262 0  14.49999999999484 1.493041422325239 0  14.24999999999446 1.493041422325239 0  14.24999999999129 2 0  14.12499999999268 1.74652071116262 0  13.99999999999091 2 0  14.62499999999661 1.239562133487858 0  14.37499999999624 1.239562133487858 0  14.49999999999801 0.9860828446504779 0  10.24702918641092 0.9928167955694513 0  10.12263620927924 1.24308444833346 0  9.996486464310319 0.986704202194936 0  9.998243232147571 1.493352101097468 0  9.872093487178645 1.236971854958944 0  9.747700510046972 1.487239507722953 0  9.873850255015896 1.743619753861476 0  9.74594374220972 0.9805916088204207 0  9.621550765078046 1.230859261584429 0  9.495401020109121 0.9744790154459053 0  9.749999999984439 2 0  9.623850255015515 1.743619753861476 0  9.499999999984059 2 0  9.373850255015135 1.743619753861476 0  9.497700510046592 1.487239507722953 0  9.24770051004621 1.487239507722953 0  9.249999999983679 2 0  9.123850255014755 1.743619753861476 0  8.999999999983299 2 0  9.371550765077664 1.230859261584429 0  3.999999999993654 2 0  3.749999999994383 2 0  3.874999999994342 1.744460791439874 0  3.624999999995071 1.744460791439874 0  3.499999999995112 2 0  3.74999999999503 1.488921582879748 0  3.3749999999958 1.744460791439874 0  3.499999999995759 1.488921582879748 0  3.249999999996488 1.488921582879748 0  3.249999999995841 2 0  3.124999999996529 1.744460791439874 0  2.99999999999657 2 0  3.624999999995718 1.233382374319621 0  3.374999999996447 1.233382374319621 0  3.499999999996406 0.9778431657594949 0  5.99999999998782 2 0  5.74999999998855 2 0  5.87499999998929 1.751159762945844 0  5.62499999999002 1.751159762945844 0  5.499999999989278 2 0  5.749999999990761 1.502319525891687 0  5.374999999990749 1.751159762945844 0  5.49999999999149 1.502319525891687 0  5.24999999999222 1.502319525891687 0  5.249999999990007 2 0  5.124999999991478 1.751159762945844 0  4.999999999990736 2 0  5.624999999992232 1.253479288837531 0  5.37499999999296 1.253479288837531 0  5.499999999993702 1.004639051783375 0  16.99999999999999 0 0  17.24999999999999 0 0  17.1249999999998 0.2593847116342085 0  17.37499999999981 0.2593847116342085 0  17.49999999999999 0 0  17.24999999999962 0.518769423268417 0  17.62499999999981 0.2593847116342085 0  17.49999999999962 0.518769423268417 0  17.74999999999962 0.518769423268417 0  17.75 0 0  17.87499999999981 0.2593847116342085 0  18 0 0  17.37499999999944 0.7781541349026255 0  17.62499999999944 0.7781541349026255 0  17.49999999999925 1.037538846536834 0  14.99999999999999 0 0  15.24999999999999 0 0  15.12499999999929 0.2488402370542198 0  15.37499999999929 0.2488402370542198 0  15.49999999999999 0 0  15.24999999999858 0.4976804741084396 0  15.62499999999929 0.2488402370542198 0  15.49999999999858 0.4976804741084396 0  15.74999999999858 0.4976804741084396 0  15.74999999999999 0 0  15.87499999999929 0.2488402370542198 0  15.99999999999999 0 0  15.37499999999788 0.7465207111626594 0  15.62499999999788 0.7465207111626594 0  15.49999999999718 0.9953609482168791 0  7.999999999982053 2 0  7.749999999982765 2 0  7.874963130275843 1.744524651647608 0  7.624963130276555 1.744524651647608 0  7.499999999983477 2 0  7.749926260569634 1.489049303295215 0  7.374963130277267 1.744524651647608 0  7.499926260570346 1.489049303295215 0  7.249926260571058 1.489049303295215 0  7.24999999998419 2 0  7.12496313027798 1.744524651647608 0  6.999999999984902 2 0  7.624889390863425 1.233573954942823 0  7.374889390864137 1.233573954942823 0  7.499852521157216 0.9780986065904302 0  12.99999999999999 0 0  13.24999999999999 0 0  13.12499999999898 0.2488402370541932 0  13.37499999999898 0.2488402370541932 0  13.49999999999999 0 0  13.24999999999796 0.4976804741083863 0  13.62499999999898 0.2488402370541932 0  13.49999999999796 0.4976804741083863 0  13.74999999999796 0.4976804741083863 0  13.74999999999999 0 0  13.87499999999898 0.2488402370541932 0  13.99999999999999 0 0  13.37499999999694 0.7465207111625796 0  13.62499999999694 0.7465207111625796 0  13.49999999999593 0.9953609482167727 0  10.99999999999998 0 0  11.24999999999998 0 0  11.12489882952011 0.2493755097330886 0  11.37489882952011 0.2493755097330886 0  11.49999999999998 0 0  11.24979765904023 0.4987510194661772 0  11.62489882952011 0.2493755097330886 0  11.49979765904023 0.4987510194661772 0  11.74979765904023 0.4987510194661772 0  11.74999999999998 0 0  11.87489882952011 0.2493755097330886 0  11.99999999999998 0 0  11.37469648856036 0.7481265291992658 0  11.62469648856036 0.7481265291992658 0  11.49959531808049 0.9975020389323543 0  6.749963130281582 1.004962518160435 0  6.874963130284149 0.751483229322826 0  6.99992626057346 0.9960078809704336 0  6.999963130286717 0.4980039404852168 0  7.124926260576027 0.7425285921328244 0  7.249926260578595 0.4890493032952151 0  7.124963130289284 0.2445246516476076 0  7.249889390865338 0.9870532437804319 0  7.374889390867905 0.7335739549428226 0  4.74999999999394 1.011597629458204 0  4.874999999995428 0.7581183406207508 0  4.999999999993861 1.009278103566595 0  4.999999999996
[...]
<PointData  Vectors="u"> 
<DataArray  type="Float64"  Name="u"  NumberOfComponents="3" format="ascii">-1.1381880488878293e-22 -3.3576366519185956e-22 -2.3438980736125283e-04  -1.4272390469144008e-22 -3.7649422223966981e-22 -2.5969512349983118e-04  -8.3762882810045124e-23 -3.5436368780206933e-22 -2.4700979285132373e-04  -1.0414744617379395e-22 -3.9641063017197381e-22 -2.7272600800569636e-04  -1.3093323517890496e-22 -4.0593927583618349e-22 -2.8575224155218701e-04  -2.5271868068236033e-23 -3.7679690070785270e-22 -2.5986826768643954e-04  -8.1865084385742207e-23 -4.4356411800477538e-22 -2.9916233424860466e-04  -3.6582084459024219e-23 -4.1915107933563796e-22 -2.8597727135924018e-04  -3.3136342665813525e-23 -4.5548742423367854e-22 -3.1277797392968736e-04  -1.1185724385975133e-22 -4.6794825161037958e-22 -3.1248442944284248e-04  -7.3696148368464590e-23 -4.7988909757725126e-22 -3.2624154100404431e-04  -1.1788209198546872e-22 -4.9323606274181752e-22 -3.3980550737268455e-04  3.8228159349643812e-25 -3.9854051844871756e-22 -2.7295108407305967e-04  -3.7725290456476928e-24 -4.3961576904996656e-22 -2.9943469661946047e-04  3.2584463125413512e-23 -4.2145577096047798e-22 -2.8625425201359261e-04  -1.2831671035767442e-22 -6.7717277114131949e-22 -4.5422362999497493e-04  -1.2018733121394276e-22 -7.1879027412045204e-22 -4.8414106662211771e-04  -8.6256000681905918e-23 -6.9817150402642408e-22 -4.6973535940614134e-04  -8.4534867793436363e-23 -7.3966108817462257e-22 -5.0011938164231837e-04  -1.1009654757760883e-22 -7.4940654174686688e-22 -5.1476879920237981e-04  -4.5379340625875017e-23 -7.1593267861839483e-22 -4.8579073786616080e-04  -7.9336960943297441e-23 -7.6151404974334983e-22 -5.3126753272067940e-04  -5.8068860918104468e-23 -7.5010731329067816e-22 -5.1691459267010661e-04  -6.1936338959765018e-23 -7.8624483877378967e-22 -5.4911499507444414e-04  -1.0983088655475189e-22 -7.7486628248257039e-22 -5.4645826727482921e-04  -8.3142916226996313e-23 -7.9140670460854653e-22 -5.6361740778323446e-04  -2.0178720040776086e-22 -8.3576730446221472e-22 -5.7996764330730491e-04  -2.5641394087071179e-23 -7.3197612954890035e-22 -5.0258002090657972e-04  -2.0988526644292072e-23 -7.7358593436487940e-22 -5.3464551275940692e-04  2.3920589007448413e-23 -7.6076076542821971e-22 -5.1970606330327830e-04  -4.4548629719614355e-23 -1.2802930121307076e-22 -6.8294356011778780e-05  -1.7040172904085442e-23 -1.6734259675498489e-22 -8.4734479729781337e-05  2.6109622371962162e-23 -1.5196589530882228e-22 -7.6257618884783629e-05  -1.1448716839979996e-24 -1.7224696134637953e-22 -9.3434225606206731e-05  -2.0512600211919278e-23 -1.6841275433868954e-22 -1.0259184332798306e-04  1.3143188953319573e-23 -1.6279805052518956e-22 -8.4648864594403863e-05  -4.4198309405426577e-23 -1.8368024069268255e-22 -1.1198003999541321e-04  -1.2310922257422350e-24 -1.7245601104479741e-22 -1.0253514214358417e-04  -1.4248975126544003e-23 -1.9374388135722775e-22 -1.2174355462886224e-04  -6.5818512751922855e-23 -1.8024355727846032e-22 -1.2177057659128307e-04  -3.7012923838273696e-23 -1.9797789494828581e-22 -1.3180096740693763e-04  -6.7793902703699901e-23 -2.0580690433306305e-22 -1.4217897555697192e-04  3.3945750545285167e-23 -1.5830956918263324e-22 -9.3450619058286954e-05  3.8159423823877594e-23 -1.8441756178222625e-22 -1.1202116223873513e-04  3.7031267602575501e-23 -1.7392734319242215e-22 -1.0264756489770149e-04  1.0748807673574704e-22 -1.4154112427271156e-22 -6.8813792780667658e-05  1.2185125973565119e-22 -1.0755284138232220e-22 -5.3792595924522181e-05  7.6983174110422113e-23 -1.1581270329954632e-22 -6.0879006511315620e-05  6.9143642172338076e-23 -1.0723009084262515e-22 -4.6663706062870995e-05  8.7927523277010087e-23 -7.5538232072321022e-23 -4.0388868201170706e-05  3.7879894192800759e-23 -9.9062327188238854e-23 -5.3404684084256824e-05  6.9364359728022971e-23 -6.0740031357427205e-23 -3.4120653646370684e-05  4.7428742051251810e-23 -7.1587855941332317e-23 -4.0026232123802865e-05  4.7359442425551472e-23 -5.6793483788035506e-23 -2.8377925121987418e-05  1.3119246935915477e-22 -3.9035668066006217e-23 -2.8708455236525278e-05  8.6961368599502023e-23 -3.9592874054736223e-23 -2.3359443362248581e-05  8.2550304758252731e-23 -7.4025019321118640e-23 -1.8858577123357653e-05  3.6500820990430672e-24 -8.1148823166097956e-23 -4.6401150488980501e-05  3.5667006105537218e-23 -8.5667821787682997e-23 -3.3890287703683796e-05  1.4394883850556945e-23 -7.6473605502766051e-23 -3.9872641709160006e-05  -5.3132301312026808e-22 -1.3285504059203460e-21 -7.2901078047673477e-04  -5.7415834217788612e-22 -1.4910765934958839e-21 -7.6770911885037766e-04  -4.0696158138424253e-22 -1.4076674979581706e-21 -7.4722792390047082e-04  -4.3327024404644512e-22 -1.5752179113241961e-21 -7.8582872055614982e-04  -5.9584653465905474e-22 -1.6602291884027670e-21 -8.0687123992728206e-04  -3.0536889296894331e-22 -1.4901398020434659e-21 -7.6548046354596336e-04  -4.4360322111121372e-22 -1.7458021324824615e-21 -8.2494611733154423e-04  -3.1572476320595484e-22 -1.6634791179730429e-21 -8.0403512018004445e-04  -3.1387751105611207e-22 -1.8369483012393710e-21 -8.4320467546768305e-04  -5.9677903669587749e-22 -1.8276848174923886e-21 -8.4650834759587954e-04  -4.4002573947061011e-22 -1.9102523822114193e-21 -8.6459635222999661e-04  -5.8111633139631386e-22 -1.9849625208933859e-21 -8.8668566542353898e-04  -2.1942324582492484e-22 -1.5832612784265643e-21 -7.8380138184050365e-04  -2.0431280129511102e-22 -1.7629089039749098e-21 -8.2245410638561638e-04  -1.4289194913415152e-22 -1.7060935200062805e-21 -8.0244017451495931e-04  -1.2572498641981082e-21 1.0055733417721491e-21 -3.3520545362268040e-03  -1.2565783465135947e-21 9.6874674836701683e-22 -3.2445969170411290e-03  -1.2151505905443960e-21 9.8730816503012649e-22 -3.2740683533976573e-03  -1.2150011443845947e-21 9.5048211896933866e-22 -3.1686412723848042e-03  -1.2563990000215057e-21 9.3228747487814892e-22 -3.1416903161871259e-03  -1.1736572097266347e-21 9.6880716209876537e-22 -3.1997560966578850e-03  -1.2152208217054189e-21 9.1419675844966570e-22 -3.0688519254332153e-03  -1.1733618046344884e-21 9.3186715195300614e-22 -3.0973908050347105e-03  -1.1737261680065491e-21 8.9534634205223344e-22 -3.0016268407355223e-03  -1.2557263494015340e-21 8.9607179282146930e-22 -3.0444400490433274e-03  -1.2156224322587375e-21 8.7868029800817420e-22 -2.9756446003201932e-03  -1.2548837267916864e-21 8.6150505277878910e-22 -2.9532362995505082e-03  -1.1318447222971375e-21 9.4999802257046315e-22 -3.1290984351380088e-03  -1.1323819633658140e-21 9.1343494252650044e-22 -3.0303975715465200e-03  -1.0897133111287750e-21 9.3097902137759880e-22 -3.0623260391022099e-03  -1.2588028659050325e-21 7.3121549720456448e-22 -2.6344303984436133e-03  -1.2683870731721674e-21 6.9812959298197673e-22 -2.5605639563556180e-03  -1.2271849013833553e-21 7.1640950890562819e-22 -2.5839834243851253e-03  -1.2309770182540909e-21 6.7896251403653257e-22 -2.5116329804912851e-03  -1.2730533561682905e-21 6.5916957850299213e-22 -2.4877561128342903e-03  -1.1851448043354538e-21 6.9775743353916279e-22 -2.5353979623828115e-03  -1.2356273711863272e-21 6.4064295132384056e-22 -2.4400650279026545e-03  -1.1825540335899479e-21 6.6136556536886787e-22 -2.4644503151092100e-03  -1.1760930752202671e-21 6.1156870293641086e-22 -2.3945103087969302e-03  -1.3098148153759636e-21 6.1228446588293094e-22 -2.4158075669809278e-03  -1.2424665369684172e-21 5.7812813894453077e-22 -2.3695778249832522e-03  -1.3532225816636002e-21 5.4065569833710338e-22 -2.3445729376321955e-03  -1.1241335267738715e-21 6.8292166575202469e-22 -2.4882607540927461e-03  -1.1120751328811910e-21 6.4683487794525952e-22 -2.4189557116953910e-03  -1.0640607537839525e-21 6.7818029609394250e-22 -2.4426142006811358e-03  -1.6910335243678467e-21 -2.3276822888039664e-21 -1.6302448733849181e-03  -1.4925442715292603e-21 -2.6710872969967482e-21 -1.5765481562304083e-03  -1.3174446332985295e-21 -2.5107053895119535e-21 -1.5993725732210890e-03  -1.1385563882809416e-21 -2.8254638761003195e-21 -1.5463160522746322e-03  -1.2371886927517464e-21 -2.9452937823953442e-21 -1.5234820401448376e-03  -1.0547246026350263e-21 -2.7014084996298326e-21 -1.5694596749641187e-03  -9.2601265933616638e-22 -3.0582249427830590e-21 -1.4937885744305014e-03  -8.8096185209797233e-22 -2.9859677944893998e-21 -1.5170199084172170e-03  -6.8568739386835727e-22 -3.1725356906571836e-21 -1.4651134864018831e-03  -9.4876363434444094e-22 -3.1314360583082492e-21 -1.4709476275864659e-03  -6.9978612370343397e-22 -3.1968468020471922e-21 -1.4418296212279900e-03  -6.5502525489212972e-22 -3.2227750773536723e-21 -1.4191260804628618e-03  -8.5722286157563561e-22 -2.9268129869904862e-21 -1.5406745559817827e-03  -6.6363647281718641e-22 -3.1755251518660408e-21 -1.4889197444937468e-03  -6.8390618672233243e-22 -3.2203193711815351e-21 -1.5133067654983659e-03  1.3040719681816461e-22 -2.9167984391368774e-21 -1.2224841015202135e-03  2.0715537983164813e-22 -2.7913085409148335e-21 -1.1765609625927504e-03  8.2101824809955270e-23 -2.8505954815158940e-21 -1.1978782472610713e-03  1.3671641087009136e-22 -2.7265121120952063e-21 -1.1526800580455264e-03  2.5421870233548014e-22 -2.6701217842700454e-21 -1.1313800182888676e-03  6.4937053655558730e-23 -2.7740404034507193e-21 -1.1748606649491231e-03  1.7300033817026888e-22 -2.6091939042247927e-21 -1.1081356089815981e-03  8.6702383938210303e-23 -2.6545394676929422e-21 -1.1303339349899237e-03  1.0428815169422240e-22 -2.5343652281616951e-21 -1.0866631025521541e-03  2.8260889791621022e-22 -2.5628066283136531e-21 -1.0871886413321864e-03  1.9534153542853493e-22 -2.5112555564388942e-21 -1.0647853661413991e-03  3.0866739574501570e-22 -2.4644992809958508e-21 -1.0441593207553021e-03  4.7947749680533070e-23 -2.6753041106878586e-21 -1.1534253968952417e-03  2.0923617502613791e-23 -2.5758627607681822e-21 -1.1094260117010919e-03  -5.7767095696285759e-23 -2.6244640289751097e-21 -1.1327406830663805e-03  -1.4219460450669029e-21 8.1805291171125032e-23 -2.0822806665296875e-03  -1.5330576541104459e-21 -7.0885477601154393e-23 -2.0222737636612200e-03  -1.3104990351842789e-21 2.2148753037505874e-23 -2.0449771544410376e-03  -1.3824970362170619e-21 -1.6750260666205540e-22 -1.9857575050046079e-03  -1.6415347370105319e-21 -2.8277967575917459e-22 -1.9632930741229808e-03  -1.1679629693705248e-21 -4.9804383840387554e-23 -2.0095815592661103e-03  -1.4448011521827773e-21 -4.0565352321403832e-22 -1.9284152653555038e-03  -1.2037022212655083e-21 -2.7817912890296054e-22 -1.9512931247389772e-03  -1.2355326588432837e-21 -5.3266858796349002e-22 -1.8951350261627764e-03  -1.7368483759062433e-21 -5.4093526515525527e-22 -1.9063629045403959e-03  -1.4981874092608892e-21 -6.8248845943906032e-22 -1.8723520393539657e-03  -1.8143976119766959e-21 -8.3899392102999708e-22 -1.8499705227335826e-03  -1.0063020318889077e-21 -1.6245481407463558e-22 -1.9754925225873958e-03  -9.9684749508327733e-22 -3.9962631060083185e-22 -1.9187711870647687e-03  -7.1680474580015951e-22 -3.1116601080927344e-22 -1.9437837978532704e-03  -6.6046658337954968e-23 -2.5317456316964658e-21 -1.0889765240911077e-03  4.2893151604395259e-23 -2.4998695042910338e-21 -1.0662661724551074e-03  -5.6739798361441161e-23 -2.4683056634179411e-21 -1.0459747320537736e-03  9.1702748414454823e-23 -2.4638307817657445e-21 -1.0439499259070049e-03  4.8813389833540630e-23 -2.4167558796546302e-21 -1.0237739052436584e-03  1.3463465310225325e-22 -2.3720937367152961e-21 -1.0019590400228750e-03  2.2020599110694010e-22 -2.4157175926448874e-21 -1.0224506644443783e-03  -4.6136524535074321e-23 -2.3726112144900554e-21 -1.0035989147539049e-03  4.1633431808961371e-23 -2.3341493051645724e-21 -9.8181599102936516e-04  -7.1183249269630292e-23 -2.2949671773306914e-21 -9.6177353588916027e-04  3.3882612768997268e-22 -2.3696308622332594e-21 -1.0020439323295855e-03  2.5136661329555764e-22 -2.3222383181893538e-21 -9.8096862891563510e-04  3.7561756275402739e-22 -2.2728544435258324e-21 -9.6062651776552676e-04  2.8187132289040751e-22 -2.2192232165548258e-21 -9.3991270670667213e-04  1.5278764651240845e-22 -2.2699374666669242e-21 -9.6060486764997139e-04  1.8398864098747391e-22 -2.1567526765609297e-21 -9.1984837286992842e-04  4.1818959086309859e-22 -2.1708372745062200e-21 -9.1984681343368878e-04  3.0843757416401151e-22 -2.1174317095652460e-21 -8.9953548027066810e-04  4.7360524712807093e-22 -2.0419160552901278e-21 -8.8001545145872896e-04  1.9480894899302853e-23 -2.2292398213374033e-21 -9.4058384858550996e-04  1.9175054844020665e-22 -3.5394669912452777e-22 -2.3553603374377725e-04  1.9497234426964751e-22 -2.9943982713542184e-22 -2.1096146556123639e-04  1.4396630773096412e-22 -3.2391448944288321e-22 -2.2289022399655004e-04  1.4090721417202225e-22 -2.9251707403167328e-22 -1.9877154139482883e-04  1.6272394608347575e-22 -2.7315048693863447e-22 -1.8729988775457112e-04  1.1936518320892400e-22 -3.0527581401181178e-22 -2.1050546752509946e-04  1.4320226762650697e-22 -2.6444938741803511e-22 -1.7559827408367940e-04  1.1373569705507734e-22 -2.7221532750459318e-22 -1.8685782095776151e-04  1.1075685339480984e-22 -2.5056871047905246e-22 -1.6419102302960760e-04  1.7154231245475134e-22 -2.4438535083050495e-22 -1.6462263661512917e-04  1.3812398439548150e-22 -2.3529751446809869e-22 -1.5344545459361407e-04  1.6610741120548593e-22 -2.2024974402143505e-22 -1.4300634838292883e-04  8.3768073019096698e-23 -2.8551849855009749e-22 -1.9839088458353205e-04  7.9555807075394454e-23 -2.5601138061236791e-22 -1.7523112317549262e-04  4.3790578122765669e-23 -2.7334148192634956e-22 -1.8655407049547343e-04  2.0388821206463162e-22 -6.6176663672484935e-22 -4.5919317409790552e-04  1.9378418671895959e-22 -6.3554430849294833e-22 -4.2881747586584630e-04  1.7681698435694128e-22 -6.4346285299686213e-22 -4.4339819674986142e-04  1.6409392467796021e-22 -5.9827430248768403e-22 -4.1341597228583153e-04  2.1114496000857990e-22 -5.7310568847403310e-22 -3.9913013015720542e-04  1.0377627203998023e-22 -6.2288525373036990e-22 -4.2783030223865563e-04  1.5202784482126879e-22 -5.5424510460487666e-22 -3.8412101754684187e-04  1.0875922532566006e-22 -5.7689003779907589e-22 -3.9825825717170838e-04  1.2339112122512209e-22 -5.4312493108531589e-22 -3.6935902761974030e-04  2.1383811754783916e-22 -5.2468390927238814e-22 -3.7011928444198453e-04  1.6881133670581386e-22 -5.1861139599552036e-22 -3.5549573462147536e-04  2.0868376272650482e-22 -5.0439847813784694e-22 -3.4178068231865619e-04  6.5773416837269230e-23 -6.0934165743554452e-22 -4.1251085594301779e-04  8.1453805621868450e-23 -5.6294721641590843e-22 -3.8335721353556740e-04  3.2298306144775764e-23 -5.8931333875962884e-22 -3.9746331456917911e-04  -9.9041204500870851e-22 7.0808388782973663e-22 -2.5389495632529061e-03  -9.7413647975159319e-22 7.3697154540325743e-22 -2.6078226288333856e-03  -1.0007885964870753e-21 7.2140778701357368e-22 -2.5811439504861084e-03  -1.0051292641887535e-21 7.5581853320672654e-22 -2.6508509217792920e-03  -9.6674470671707658e-22 7.7392412870271564e-22 -2.6808536396896857e-03  -1.0358293909591353e-21 7.3835070909022256e-22 -2.6265054131655078e-03  -1.0025540351203188e-21 7.9368970834246562e-22 -2.7264717531218798e-03  -1.0394733665597474e-21 7.7631343075363927e-22 -2.6987651230062910e-03  -1.0389955185998196e-21 8.1618390324312745e-22 -2.7771227757203052e-03  -9.6317514925161882e-22 8.1409113371566550e-22 -2.7608885533864850e-03  -1.0000182230860185e-21 8.3481591705657218e-22 -2.8087613795283795e-03  -9.6042179797802892e-22 8.5365679985595641e-22 -2.8465542746047502e-03  -1.0717809427786767e-21 7.6105204772295077e-22 -2.6751027978353264e-03  -1.0739046810490827e-21 7.9908856148685516e-22 -2.7506849756827631e-03  -1.1117084884046919e-21 7.8748857122257023e-22 -2.7272700689746215e-03  -4.1112760017037553e-22 -1.5037508302595162e-22 -2.0445000735806883e-03  -4.0446997407455961e-22 -1.6677341528296498e-22 -2.1022392544407312e-03  -3.7616186541637028e-22 -1.5932433685937964e-22 -2.0761858835199602e-03  -5.9364716024456788e-22 -7.6703539095038526e-23 -2.1356050713084991e-03  -4.0692438405494544e-22 2.8374262003042293e-24 -2.1606030892758863e-03  -6.4601289712164595e-22 4.0800882343683064e-23 -2.1100000690917825e-03  -9.7775320902058679e-22 2.8033142808747375e-22 -2.1957632846482571e-03  -8.3358805808807456e-22 2.4955728667826209e-22 -2.1705013260003743e-03  -9.6659694041664479e-22 5.1557810755862884e-22 -2.2318501655205990e-03  -3.9891799240526712e-22 5.8040598560965016e-22 -2.2208418593078405e-03  -9.8080666432401635e-22 8.7279563803875862e-22 -2.2566091430093809e-03  -9.5548724891309157e-22 9.0058036484900108e-22 -2.2818667206116307e-03  -8.3481147726597731e-22 2.2619156047819370e-22 -2.1452313084485458e-03  -9.3498745657197282e-22 3.9960365939677846e-22 -2.2067107495962819e-03  -9.6374700886995476e-22 3.3354093825709894e-22 -2.1812915953174387e-03  5.2171945779121934e-22 -1.3060347466156305e-21 -7.2776262392343263e-04  4.4141347557264249e-22 -1.1549168224106230e-21 -6.9146733550297455e-04  3.7151723818347565e-22 -1.2165901854464531e-21 -7.0900771840168427e-04  2.3411717234248339e-22 -1.0681969055041779e-21 -6.7298622504982327e-04  3.4494512000835697e-22 -1.0034793990073634e-21 -6.5585824610404735e-04  1.6484323120310419e-22 -1.1421498585170300e-21 -6.9066844335542461e-04  2.2685903278569311e-22 -9.6559474650599603e-22 -6.3800161414373328e-04  1.4963173857534911e-22 -1.0149795310294089e-21 -6.5512176404915775e-04  1.5031263704387970e-22 -9.2431909976046981e-22 -6.2041894334572366e-04  2.5070500396804334e-22 -9.1890110029573421e-22 -6.2124072094637140e-04  1.9833023676056516e-22 -8.9296899003619275e-22 -6.0385245194889258e-04  2.4512452531864971e-22 -8.6018756760698895e-22 -5.8752686592257735e-04  2.0671397598375000e-23 -1.0782577516715183e-21 -6.7265620232609511e-04  5.2002341922661179e-23 -9.6094692814200848e-22 -6.3731265856877537e-04  -1.0845705356491880e-22 -1.0155480876626611e-21 -6.5472109745106798e-04  7.9269728814381525e-22 -2.2945599003621429e-21 -1.6177109347466265e-03  1.6411704603670977e-22 -1.4492733705308000e-21 -1.6685624246063450e-03  -3.9293967937028222e-22 -1.7169656911070481e-21 -1.6423729774743664e-03  -3.9526532612185723e-22 -1.1860084271188745e-21 -1.6939698908596103e-03  7.7072736842423248e-23 -9.4603515481181465e-22 -1.7202226473796293e-03  -9.2034083125872595e-22 -1.4541485190094926e-21 -1.6676825439705064e-03  -4.2204332467024783e-22 -7.1766251967668368e-22 -1.7467279408343098e-03  -7.5118958001015290e-22 -1.0730400070718965e-21 -1.7202671132482005e-03  -6.9945377237208881e-22 -5.7148899450453887e-22 -1.7737062061973137e-03  -9.8239271482107504e-23 -5.7327101099209356e-22 -1.7727796623023503e-03  -4.1949645564495546e-22 -4.4040805837093261e-22 -1.8000075948621905e-03  -1.1780796795914414e-22 -2.9498429193128538e-22 -1.8264671622467412e-03  -9.2424874927588983e-22 -1.4784610630914243e-21 -1.6945167737727463e-03  -8.4505628612682566e-22 -1.0221927037753630e-21 -1.7480505234878905e-03  -9.9493508584731275e-22 -1.3879584324333482e-21 -1.7233825360675797e-03  -4.9695527041106456e-22 -2.8534058436132286e-21 -1.2304728528688212e-03  -5.6074643743406730e-22 -2.9790138121789007e-21 -1.2767763049834889e-03  -4.3262060640561288e-22 -2.9109142089704312e-21 -1.2514112969705482e-03  -4.2325767321922923e-22 -3.0382329860089997e-21 -1.2979604087123202e-03  -5.4725545166462565e-22 -3.1076672034001147e-21 -1.3237775565235683e-03  -2.9309940145937248e-22 -2.9808808241567218e-21 -1.2724914691927133e-03  -4.1258631375376009e-22 -3.1704230778501596e-21 -1.3451383439799243e-03  -2.8847052041579347e-22 -3.1201011861424947e-21 -1.3192505307475554e-03  -2.9911781300393724e-22 -3.2291922808704192e-21 -1.3667135329681554e-03  -7.3314880771707414e-22 -3.2049915250600664e-21 -1.3710847678690256e-03  -4.1417612403407299e-22 -3.2859781620744382e-21 -1.3928198075323869e-03  -1.0685950364095527e-21 -3.6365614165187495e-21 -1.4190503557132675e-03  -1.5785331228330974e-22 -3.0583280045033097e-21 -1.2934611250932206e-03  -2.0469715570907966e-23 -3.2477755906029548e-21 -1.3405599821116976e-03  -6.6739914500437315e-23 -3.1931179488083555e-21 -1.314