<?xml version="1.0"?>
<VTKFile type="UnstructuredGrid"  version="0.1"  >
<UnstructuredGrid>
<Piece  NumberOfPoints="394" NumberOfCells="690">
<Points>
<DataArray  type="Float64"  NumberOfComponents="3"  format="ascii">18.99999999999849 2 0  18.74999999999811 2 0  18.87499999999887 1.71650635094611 0  18.62499999999849 1.71650635094611 0  18.49999999999773 2 0  18.74999999999925 1.433012701892219 0  18.37499999999811 1.71650635094611 0  18.49999999999887 1.433012701892219 0  18.24999999999849 1.433012701892219 0  18.24999999999736 2 0  18.12499999999773 1.71650635094611 0  17.99999999999698 2 0  18.62499999999962 1.149519052838329 0  18.37499999999925 1.149519052838329 0  18.5 0.8660254037844386 0  16.99999999999547 2 0  16.74999999999509 2 0  16.87499999999629 1.746520711162699 0  16.62499999999591 1.746520711162699 0  16.49999999999471 2 0  16.7499999999971 1.493041422325399 0  16.37499999999553 1.746520711162699 0  16.49999999999672 1.493041422325399 0  16.24999999999635 1.493041422325399 0  16.24999999999434 2 0  16.12499999999515 1.746520711162699 0  15.99999999999396 2 0  16.62499999999792 1.239562133488098 0  16.37499999999754 1.239562133488098 0  16.49999999999874 0.9860828446507974 0  12.99999999998939 2 0  12.74999999998901 2 0  12.87499999999136 1.74652071116254 0  12.62499999999098 1.74652071116254 0  12.49999999998862 2 0  12.74999999999334 1.49304142232508 0  12.3749999999906 1.74652071116254 0  12.49999999999295 1.49304142232508 0  12.24999999999257 1.49304142232508 0  12.24999999998824 2 0  12.12499999999022 1.74652071116254 0  11.99999999998786 2 0  12.62499999999531 1.239562133487619 0  12.37499999999493 1.239562133487619 0  12.49999999999728 0.9860828446501591 0  10.99999999998634 2 0  10.74999999998596 2 0  10.87439297711764 1.749732347235992 0  10.62439297711725 1.749732347235992 0  10.49999999998558 2 0  10.74878595424893 1.499464694471983 0  10.37439297711687 1.749732347235992 0  10.49878595424855 1.499464694471983 0  10.24878595424817 1.499464694471983 0  10.2499999999852 2 0  10.1243929771165 1.749732347235992 0  9.999999999984821 2 0  10.62317893138022 1.249197041707975 0  10.37317893137984 1.249197041707975 0  10.49757190851152 0.9989293889439668 0  14.99999999999243 2 0  14.74999999999205 2 0  14.87499999999383 1.74652071116262 0  14.62499999999345 1.74652071116262 0  14.49999999999167 2 0  14.74999999999522 1.493041422325239 0  14.37499999999307 1.74652071116262 0  14.49999999999484 1.493041422325239 0  14.24999999999446 1.493041422325239 0  14.24999999999129 2 0  14.12499999999268 1.74652071116262 0  13.99999999999091 2 0  14.62499999999661 1.239562133487858 0  14.37499999999624 1.239562133487858 0  14.49999999999801 0.9860828446504779 0  10.24702918641092 0.9928167955694513 0  10.12263620927924 1.24308444833346 0  9.996486464310319 0.986704202194936 0  9.998243232147571 1.493352101097468 0  9.872093487178645 1.236971854958944 0  9.873850255015896 1.743619753861476 0  16.99999999999999 0 0  17.24999999999999 0 0  17.1249999999998 0.2593847116342085 0  17.37499999999981 0.2593847116342085 0  17.49999999999999 0 0  17.24999999999962 0.518769423268417 0  17.62499999999981 0.2593847116342085 0  17.49999999999962 0.518769423268417 0  17.74999999999962 0.518769423268417 0  17.75 0 0  17.87499999999981 0.2593847116342085 0  18 0 0  17.37499999999944 0.7781541349026255 0  17.62499999999944 0.7781541349026255 0  17.49999999999925 1.037538846536834 0  14.99999999999999 0 0  15.24999999999999 0 0  15.12499999999929 0.2488402370542198 0  15.37499999999929 0.2488402370542198 0  15.49999999999999 0 0  15.24999999999858 0.4976804741084396 0  15.62499999999929 0.2488402370542198 0  15.49999999999858 0.4976804741084396 0  15.74999999999858 0.4976804741084396 0  15.74999999999999 0 0  15.87499999999929 0.2488402370542198 0  15.99999999999999 0 0  15.37499999999788 0.7465207111626594 0  15.62499999999788 0.7465207111626594 0  15.49999999999718 0.9953609482168791 0  12.99999999999999 0 0  13.24999999999999 0 0  13.12499999999898 0.2488402370541932 0  13.37499999999898 0.2488402370541932 0  13.49999999999999 0 0  13.24999999999796 0.4976804741083863 0  13.62499999999898 0.2488402370541932 0  13.49999999999796 0.4976804741083863 0  13.74999999999796 0.4976804741083863 0  13.74999999999999 0 0  13.87499999999898 0.2488402370541932 0  13.99999999999999 0 0  13.37499999999694 0.7465207111625796 0  13.62499999999694 0.7465207111625796 0  13.49999999999593 0.9953609482167727 0  10.99999999999998 0 0  11.24999999999998 0 0  11.12489882952011 0.2493755097330886 0  11.37489882952011 0.2493755097330886 0  11.49999999999998 0 0  11.24979765904023 0.4987510194661772 0  11.62489882952011 0.2493755097330886 0  11.49979765904023 0.4987510194661772 0  11.74979765904023 0.4987510194661772 0  11.74999999999998 0 0  11.87489882952011 0.2493755097330886 0  11.99999999999998 0 0  11.37469648856036 0.7481265291992658 0  11.62469648856036 0.7481265291992658 0  11.49959531808049 0.9975020389323543 0  12.24989882951808 0.9889376432207079 0  12.12489882951573 1.242416932058168 0  11.99979765903888 0.9917924417912567 0  11.99989882951337 1.495896220895628 0  11.87479765903653 1.245271730628717 0  11.74979765903418 1.498751019466177 0  11.87489882951102 1.749375509733089 0  11.74969648855969 0.9946472403618055 0  11.62469648855733 1.248126529199266 0  14.24999999999749 0.9884023705420516 0  14.12499999999572 1.241881659379432 0  13.99999999999697 0.9907218964336253 0  13.99999999999394 1.495360948216813 0  13.87499999999519 1.244201185271006 0  13.74999999999342 1.497680474108386 0  13.87499999999217 1.748840237054193 0  13.74999999999645 0.993041422325199 0  13.62499999999467 1.246520711162579 0  16.24999999999835 0.9884023705423178 0  16.12499999999715 1.241881659379618 0  15.99999999999796 0.9907218964338382 0  15.99999999999596 1.495360948216919 0  15.87499999999676 1.244201185271139 0  15.74999999999557 1.49768047410844 0  15.87499999999477 1.74884023705422 0  15.74999999999757 0.9930414223253587 0  15.62499999999637 1.246520711162659 0  18.24999999999981 0.9089037644725375 0  18.12499999999905 1.192397413526428 0  17.99999999999962 0.9517821251606363 0  17.9999999999983 1.475891062580318 0  17.87499999999887 1.235275774214527 0  17.74999999999812 1.518769423268417 0  17.87499999999755 1.759384711634209 0  17.74999999999944 0.9946604858487351 0  17.62499999999869 1.278154134902626 0  17.12499999999642 1.759384711634209 0  16.99999999999723 1.505905422796908 0  17.24999999999736 1.518769423268417 0  16.87499999999805 1.252426133959607 0  17.12499999999818 1.265290134431116 0  16.99999999999899 1.011810845593816 0  16.74999999999887 0.9989468451223066 0  17.37499999999831 1.278154134902626 0  17.24999999999912 1.024674846065325 0  15.12499999999362 1.74884023705422 0  14.99999999999501 1.495360948216839 0  15.2499999999948 1.49768047410844 0  14.87499999999641 1.241881659379459 0  15.1249999999962 1.244201185271059 0  14.99999999999759 0.9907218964336786 0  14.7499999999978 0.9884023705420782 0  15.37499999999599 1.246520711162659 0  15.24999999999739 0.9930414223252788 0  13.12499999999103 1.748840237054193 0  12.999999999993 1.495360948216733 0  13.24999999999266 1.497680474108386 0  12.87499999999497 1.241881659379273 0  13.12499999999463 1.244201185270926 0  12.99999999999661 0.9907218964334659 0  12.74999999999694 0.9884023705418125 0  13.37499999999429 1.246520711162579 0  13.24999999999627 0.9930414223251193 0  11.12489882950988 1.749375509733089 0  10.99929180664117 1.49910785696908 0  11.24979765903342 1.498751019466177 0  10.87368478377247 1.248840204205072 0  11.12419063616471 1.248483366702169 0  10.998583613296 0.9982157139381606 0  10.74807776090376 0.9985725514410637 0  11.37469648855695 1.248126529199266 0  11.24908946568825 0.9978588764352574 0  16.62499999999905 0.7395621334880981 0  16.87499999999918 0.7524261339596072 0  16.74999999999936 0.4930414223253987 0  16.99999999999949 0.5059054227969079 0  17.12499999999931 0.7652901344311164 0  16.87499999999968 0.2465207111626994 0  18.125 0.2165063509461096 0  17.99999999999981 0.4758910625803182 0  18.25 0.4330127018922193 0  18.12499999999981 0.6923974135264278 0  17.87499999999962 0.7352757742145266 0  18.375 0.649519052838329 0  16.12499999999968 0.2465207111626994 0  15.99999999999897 0.4953609482169191 0  16.24999999999936 0.4930414223253987 0  16.12499999999866 0.7418816593796185 0  15.87499999999827 0.7442011852711389 0  16.37499999999905 0.7395621334880981 0  14.6249999999985 0.7395621334878584 0  14.8749999999983 0.7418816593794588 0  14.749999999999 0.493041422325239 0  14.99999999999879 0.4953609482168393 0  15.12499999999809 0.7442011852710591 0  14.8749999999995 0.2465207111626195 0  14.1249999999995 0.2465207111626195 0  13.99999999999848 0.4953609482168126 0  14.249999999999 0.493041422325239 0  14.12499999999799 0.7418816593794322 0  13.87499999999747 0.7442011852710058 0  14.3749999999985 0.7395621334878584 0  12.62499999999796 0.7395621334876192 0  12.87499999999762 0.7418816593792728 0  12.74999999999864 0.4930414223250795 0  12.9999999999983 0.4953609482167329 0  13.12499999999728 0.744201185270926 0  12.87499999999931 0.2465207111625398 0  12.12499999999931 0.2465207111625398 0  11.99989882951943 0.4958962208956283 0  12.24999999999863 0.4930414223250795 0  12.12489882951876 0.7424169320581682 0  11.87479765903956 0.7452717306287169 0  12.37499999999796 0.7395621334876192 0  10.62317893138363 0.7491970417079751 0  10.87368478377588 0.7488402042050719 0  10.74878595425575 0.4994646944719834 0  10.99929180664799 0.4991078569690803 0  11.12419063616812 0.7484833667021689 0  10.87439297712787 0.2497323472359917 0  19.08563708345907 1.816579429209366 0  18.96063708345945 1.533085780155476 0  19.17127416691965 1.633158858418732 0  18.83563708345983 1.249592131101585 0  19.04627416692003 1.349665209364842 0  18.9212741669204 1.066171560310951 0  18.7106370834602 0.9660984820476949 0  19.25691125038023 1.449738287628098 0  19.13191125038061 1.166
[...]
<PointData  Vectors="u"> 
<DataArray  type="Float64"  Name="u"  NumberOfComponents="3" format="ascii">-3.7972504029891350e-21 3.1903472205811430e-20 -3.4415361546548695e-03  -3.7950549687624282e-21 3.1122130567144332e-20 -3.3370225081397376e-03  -2.9108021279074082e-21 3.1512395257343436e-20 -3.3645312813209379e-03  -2.9113648786955480e-21 3.0732096514150683e-20 -3.2620397050046744e-03  -3.7924083122910999e-21 3.0343852062373770e-20 -3.2366607589356115e-03  -2.0243364147150980e-21 3.1120514117077017e-20 -3.2911051519634404e-03  -2.9135251917682450e-21 2.9956665132288775e-20 -3.1648016004206074e-03  -2.0259643219691445e-21 3.0341287172896495e-20 -3.1913069008349193e-03  -2.0292653358816776e-21 2.9565882395662380e-20 -3.0980681023562578e-03  -3.7915017424322154e-21 2.9572210773332566e-20 -3.1419415120431046e-03  -2.9177612994819808e-21 2.9187763753391400e-20 -3.0737912314216689e-03  -3.7915554590351582e-21 2.8806359712145972e-20 -3.0523707996595963e-03  -1.1350988421478761e-21 3.0726075087643787e-20 -3.2209903908410665e-03  -1.1350380061490096e-21 2.9945527061442019e-20 -3.1245854023528568e-03  -2.4086379152401969e-22 3.0325280752920999e-20 -3.1543548346478563e-03  -3.8770515692274460e-21 2.5776529067103135e-20 -2.7288417036936039e-03  -3.9335425683083006e-21 2.5006530994461110e-20 -2.6519620939766558e-03  -3.1148723759099501e-21 2.5394993326325381e-20 -2.6774284488093113e-03  -3.1651926030246268e-21 2.4616093558666914e-20 -2.6021290821893095e-03  -4.0167162031516126e-21 2.4213697437592217e-20 -2.5759339360972647e-03  -2.3260113904210814e-21 2.5014513599277998e-20 -2.6284990955686644e-03  -3.2271760430796090e-21 2.3808377713158010e-20 -2.5275958983513695e-03  -2.3683579169273611e-21 2.4220295017319844e-20 -2.5548714208696436e-03  -2.4028006520958864e-21 2.3393595035152744e-20 -2.4819635752077762e-03  -4.1030040822050223e-21 2.3392940155992774e-20 -2.5011792413191102e-03  -3.2766592916580256e-21 2.2970783227793661e-20 -2.4542787766506638e-03  -4.1933770047573688e-21 2.2541280528425776e-20 -2.4277383370531376e-03  -1.4833105900633711e-21 2.4642757304241186e-20 -2.5824426527430210e-03  -1.5198280685009304e-21 2.3823404135935732e-20 -2.5104653787996140e-03  -6.1126830494770993e-22 2.4269430296360199e-20 -2.5389957048428907e-03  -5.2706776337923032e-21 8.6615191604618530e-21 -1.7035640640442292e-03  -4.9703381371598743e-21 7.3148276331814360e-21 -1.6488015732498856e-03  -3.8696955504756748e-21 7.9747598718443997e-21 -1.6732428007690218e-03  -3.5910044757470968e-21 6.6660137887021045e-21 -1.6188260768354866e-03  -4.5773505589091049e-21 6.0565386316175313e-21 -1.5945083921018199e-03  -2.6480762760483490e-21 7.2847450202992663e-21 -1.6436916073072020e-03  -3.2504782482217199e-21 5.4611485965980680e-21 -1.5649848432317329e-03  -2.3815649290093840e-21 6.0170847762164072e-21 -1.5896785490000763e-03  -2.0763412488835181e-21 4.8721367669040453e-21 -1.5362504986966342e-03  -4.1144627357615199e-21 4.9124063204238685e-21 -1.5408453535626274e-03  -2.8688800285864405e-21 4.3819520775858473e-21 -1.5117058836563544e-03  -3.6075664690213922e-21 3.8974189412815805e-21 -1.4879240583487094e-03  -1.5434219624812097e-21 6.5642873220236403e-21 -1.6150325463185769e-03  -1.2653909839501383e-21 5.3437187867122301e-21 -1.5615812300843173e-03  -4.7629964061871143e-22 5.7722675258619117e-21 -1.5877224248426228e-03  -1.8983645459465654e-21 1.2097260152103845e-21 -1.2853056582135145e-03  -1.8876268944505996e-21 5.9324645285727332e-22 -1.2360368985062866e-03  -1.2742970025695156e-21 8.9802833598252443e-22 -1.2580975522050275e-03  -1.0552268064873244e-21 2.6987436132414540e-22 -1.2092187938080770e-03  -1.7013757587860882e-21 -6.3099486470153837e-23 -1.1870157290988540e-03  -6.3937017801831239e-22 4.8106219781174910e-22 -1.2326874294995333e-03  -9.7252714652808942e-22 -3.7176076063278150e-22 -1.1612679547033187e-03  -3.3770430539898690e-22 -5.0575367602478604e-23 -1.1850334588684756e-03  -3.0772966715057570e-22 -6.8229662277808748e-22 -1.1384962202557157e-03  -1.3557214742835688e-21 -6.2301676215977399e-22 -1.1394774733296353e-03  -7.3430153991595179e-22 -8.5938041153030235e-22 -1.1151971878751526e-03  -1.0219710405217043e-21 -1.0498650765901513e-21 -1.0933592475047907e-03  -2.2389126392840526e-22 9.9709986644312324e-23 -1.2098822749808454e-03  5.9319834320234657e-23 -4.8496830348124942e-22 -1.1629838924012044e-03  4.3251435224137949e-22 -2.0833419024991509e-22 -1.1881068945872586e-03  -4.6807301492825921e-21 1.8874942126412911e-20 -2.1583276542525773e-03  -4.8685031979927293e-21 1.7827505317631836e-20 -2.0985154410128092e-03  -3.6867107312511923e-21 1.8362750569950849e-20 -2.1218348662869579e-03  -3.8330500317016722e-21 1.7286155886739140e-20 -2.0638292017690048e-03  -5.0715629852783545e-21 1.6709542946620108e-20 -2.0401555694199184e-03  -2.6437646663548063e-21 1.7861901926899574e-20 -2.0886491324566092e-03  -3.9763367545083943e-21 1.6126846194552361e-20 -2.0068762302383890e-03  -2.7626446862507473e-21 1.6746755781207191e-20 -2.0314023455081957e-03  -2.8742557749750817e-21 1.5543544822610650e-20 -1.9751734949338870e-03  -5.2651781963518847e-21 1.5509114326493301e-20 -1.9830571797706921e-03  -4.0998766698020107e-21 1.4885281615172685e-20 -1.9506781769568992e-03  -5.4246630932112920e-21 1.4229126429737752e-20 -1.9265408308616673e-03  -1.5544154178714675e-21 1.7399033885686308e-20 -2.0576026645732774e-03  -1.6919318817196570e-21 1.6218694759148813e-20 -2.0008234985595202e-03  -5.5100418543182866e-22 1.6913117611683550e-20 -2.0282789652855196e-03  4.4351262238495165e-22 -7.0450487597814169e-22 -1.1414874746439976e-03  9.5437671546934235e-23 -8.7793557255081017e-22 -1.1170714156480924e-03  4.2782275725639444e-22 -1.0337263009125352e-21 -1.0956488561075519e-03  -1.7094130627673543e-22 -1.0429218086524773e-21 -1.0930329985908386e-03  1.2837152320129033e-22 -1.1828555573094275e-21 -1.0717320574626238e-03  -5.2540387142220674e-22 -1.2168302509699313e-21 -1.0700319359247749e-03  2.2630083535188204e-21 2.5700625309980327e-20 -2.6542766296731662e-03  2.3866106044964479e-21 2.6398061736696515e-20 -2.7239519247595875e-03  1.6657385942276136e-21 2.6017083728537801e-20 -2.6945609019822991e-03  1.6588420286011773e-21 2.6802466150535127e-20 -2.7645431565267806e-03  2.4387988988077670e-21 2.7184947541920351e-20 -2.7949797391621130e-03  8.5702755009881768e-22 2.6412999685132164e-20 -2.7368852391216939e-03  1.6636994080229893e-21 2.7584963785406295e-20 -2.8367692471877996e-03  8.4702594188245741e-22 2.7199620238789944e-20 -2.8082862943135931e-03  8.4360633992186946e-22 2.7960512415083817e-20 -2.8828693802176756e-03  2.4552779373728353e-21 2.7961390886538916e-20 -2.8698540553093736e-03  1.6577145658764481e-21 2.8347999943558628e-20 -2.9127884775925717e-03  2.4688333403493955e-21 2.8736242887818404e-20 -2.9490149491142562e-03  7.6129419226499823e-23 2.6853939962726852e-20 -2.7818646070112054e-03  7.7546533315969617e-23 2.7588116431392814e-20 -2.8557680387762048e-03  -7.6441140455344042e-22 2.7262580787925460e-20 -2.8301241637507277e-03  2.9705686159707782e-21 1.8690227840801743e-20 -2.1457797553217687e-03  2.9676772581581484e-21 1.9454427445032377e-20 -2.2051676002292197e-03  2.2250045398700308e-21 1.9066317532241927e-20 -2.1747766651817259e-03  2.0886264458223158e-21 1.9874876350567827e-20 -2.2358262470204070e-03  2.9471869440931359e-21 2.0287527412390436e-20 -2.2652276444847567e-03  1.2027421971457004e-21 1.9607326718517428e-20 -2.2049180301540326e-03  1.7526895918709883e-21 2.0895637580386461e-20 -2.2975644504360502e-03  1.0705354437618971e-21 2.0557169128635750e-20 -2.2671510360883214e-03  9.6961998589967584e-22 2.1549979246046318e-20 -2.3300704649791017e-03  2.9440096023157473e-21 2.1494585246840973e-20 -2.3271093326253899e-03  1.7618189826512323e-21 2.2082872591548470e-20 -2.3600259785712188e-03  2.8649727717116855e-21 2.2677862075693663e-20 -2.3897334702000770e-03  2.3631687119289166e-22 2.0176700518235486e-20 -2.2353631793843687e-03  1.6833268508452984e-22 2.1126553093704561e-20 -2.2988661680748948e-03  -6.9356007858542220e-22 2.0714043379285871e-20 -2.2672705632272045e-03  4.7578257141134287e-21 8.5687324140201831e-21 -1.7015098958854189e-03  3.8888208108697672e-21 1.0665624128297360e-20 -1.7548370588361516e-03  2.2371711453595670e-21 9.8319730928412655e-21 -1.7259500319876063e-03  2.2399601547925898e-21 1.1501787193096631e-20 -1.7798292266765752e-03  3.8152742830577975e-21 1.2231770449255617e-20 -1.8087375967080017e-03  5.5446266300004948e-22 1.0663725069802347e-20 -1.7508579350360371e-03  2.2568285886721227e-21 1.2939333540928818e-20 -1.8347185359406544e-03  8.9011445245226726e-22 1.2048814575669973e-20 -1.8056915083558007e-03  9.8968177372162860e-22 1.3556310662973667e-20 -1.8611232939191524e-03  3.6570603261717636e-21 1.3465895442506985e-20 -1.8636791774637278e-03  2.2341020680029688e-21 1.4167656249597859e-20 -1.8899867740780015e-03  3.6606129911768679e-21 1.4878657187179454e-20 -1.9192153959873470e-03  -1.5907951949438739e-22 1.1065818009080824e-20 -1.7772806982349573e-03  -2.5689693707586073e-23 1.2570052988956753e-20 -1.8326688493806361e-03  -1.0187586024413007e-21 1.1656317783419395e-20 -1.8051924635308948e-03  2.8569074238646275e-21 1.1024998072498920e-21 -1.2931350926593485e-03  2.9308619497752347e-21 1.7131764559947179e-21 -1.3423093277144017e-03  2.2758564668515653e-21 1.3940504151220406e-21 -1.3151570457277239e-03  2.2859043097135390e-21 2.0287207620547060e-21 -1.3645126976564192e-03  2.8836495485751891e-21 2.3341304553350939e-21 -1.3920248445965420e-03  1.6812612640420475e-21 1.7062777827168645e-21 -1.3372820406477015e-03  2.2821173371800305e-21 2.6386297284179706e-21 -1.4143689802005237e-03  1.6769475720876701e-21 2.3339211627366216e-21 -1.3867693862448271e-03  1.6857184343418578e-21 2.9423330742975633e-21 -1.4368808103994045e-03  2.9031787122389609e-21 2.9400584934087018e-21 -1.4421812220974720e-03  2.2793882317820939e-21 3.2500160611842657e-21 -1.4646866912062149e-03  2.9343689000721710e-21 3.5662493585587672e-21 -1.4927884427495448e-03  1.0591876750560481e-21 2.0257014407762987e-21 -1.3593223740402680e-03  1.0258065687810229e-21 2.6244274762709502e-21 -1.4091023942281117e-03  3.0694283697278110e-22 2.3078942382346116e-21 -1.3816773506449484e-03  -1.5631451792197790e-22 4.6219921443445441e-21 -1.5348249542645332e-03  -9.9132696611835747e-22 4.2766600514932411e-21 -1.5088009403452149e-03  7.8633521294029999e-23 3.6904199041081969e-21 -1.4830038921931719e-03  -1.7681029199171106e-21 3.8697493810389363e-21 -1.4835831856823552e-03  -7.4800003474926880e-22 3.3803934810976438e-21 -1.4569209391540434e-03  -1.4672325190011012e-21 3.0141939846632912e-21 -1.4316265467919822e-03  -2.4781899514974795e-21 3.4380859758520868e-21 -1.4591571686142944e-03  2.0619006474301754e-22 2.9558872828717974e-21 -1.4321140408757218e-03  -5.4811988109569382e-22 2.6342281555185305e-21 -1.4056506676659068e-03  -6.8538477085021623e-22 1.5709223155571536e-20 -1.9716545853444910e-03  -1.8130831777601959e-21 1.4976538899458247e-20 -1.9450101119869031e-03  -8.0766756337697669e-22 1.4438258411452047e-20 -1.9160399403728838e-03  -2.9758898487983394e-21 1.4263876125553342e-20 -1.9195278935579400e-03  -1.9112609204877994e-21 1.3661450391639501e-20 -1.8895213749474224e-03  -3.0445728323671779e-21 1.2913036017654817e-20 -1.8640278037313843e-03  -4.1989203825606996e-21 1.3569088615384628e-20 -1.8948264000274251e-03  -9.2097429660637162e-22 1.3091486427424259e-20 -1.8605991229369084e-03  -1.9812687190452389e-21 1.2273244771122985e-20 -1.8341395684184384e-03  -6.6523724451039397e-22 2.3431721175851183e-20 -2.4690642759810553e-03  -1.5576990658261932e-21 2.2975970492949833e-20 -2.4395142416615907e-03  -6.9741369907009250e-22 2.2550949411002209e-20 -2.4001404078721348e-03  -2.4525461555584376e-21 2.2542326740284902e-20 -2.4102811204729318e-03  -1.5887126252231290e-21 2.2102493887404472e-20 -2.3696341720059119e-03  -2.5030270287844568e-21 2.1664988801700174e-20 -2.3399701483353833e-03  -3.3557740913958998e-21 2.2107130767590349e-20 -2.3822007361106730e-03  -7.0641034786661283e-22 2.1639564482511227e-20 -2.3327096514286680e-03  -1.6121254515510341e-21 2.1208254834902258e-20 -2.3017845472071770e-03  -3.7258324746920993e-22 2.9541297906247939e-20 -3.0646695847775583e-03  -1.2685883278409321e-21 2.9169841668659216e-20 -3.0380216484152734e-03  -5.0076445620570836e-22 2.8762103033159419e-20 -2.9813767963171528e-03  -2.1700851971239954e-21 2.8799810955482336e-20 -3.0138667208510746e-03  -1.4028409940071213e-21 2.8398316845566851e-20 -2.9574722483253981e-03  -2.3145923231638533e-21 2.8041693699163299e-20 -2.9347712582794201e-03  -3.0580675893948816e-21 2.8425702739548574e-20 -2.9914215825017293e-03  -6.3271273693243102e-22 2.7992447559001900e-20 -2.9041778811803465e-03  -1.5381391067923033e-21 2.7648942101102150e-20 -2.8808776798962149e-03  -3.1149414480646471e-21 2.6157852091787049e-20 -2.7540875773925427e-03  -2.3290088620123307e-21 2.5780538187119893e-20 -2.7035149117927166e-03  -2.3417061425720147e-21 2.6536979169663347e-20 -2.7793026760563689e-03  -1.4868460559561461e-21 2.5410983121893676e-20 -2.6555785630997791e-03  -1.5090786395609195e-21 2.6162321157296224e-20 -2.7296252105205162e-03  -6.6001534530218797e-22 2.5808357299747159e-20 -2.6825247743885185e-03  -6.2679087085848045e-22 2.5070855124497151e-20 -2.6102539067262634e-03  -1.5421608951335602e-21 2.6910574529236868e-20 -2.8045812640139999e-03  -7.1488949561056991e-22 2.6521970126122561e-20 -2.7557697568616228e-03  -3.5870514956365573e-21 1.9373557705894495e-20 -2.1816483690816108e-03  -2.5552097365339231e-21 1.8881907151107578e-20 -2.1470081050729787e-03  -2.5666939338298560e-21 1.9847882234814444e-20 -2.2073803109152164e-03  -1.5642131174132323e-21 1.8382991586429392e-20 -2.1155821179047363e-03  -1.5750871455251750e-21 1.9357966218195629e-20 -2.1748402600735286e-03  -5.9551420808720117e-22 1.8835098147879186e-20 -2.1441931529596944e-03  -5.6070034062801536e-22 1.7890699348773155e-20 -2.0857762165503784e-03  -1.6128031655268415e-21 2.0286960244065512e-20 -2.2363648539881842e-03  -6.4672120033993962e-22 1.9772503649319622e-20 -2.2043013702903770e-03  -4.0822449080066728e-21 9.3570668630675580e-21 -1.7282416597186991e-03  -2.8630069821109191e-21 8.6473700708722028e-21 -1.6982130871316357e-03  -3.0028098512055826e-21 1.0068775289141435e-20 -1.7532565360958662e-03  -1.7812666476849087e-21 7.9095681494776751e-21 -1.6690924901992745e-03  -1.9369541993486549e-21 9.3444906225598604e-21 -1.7237646560356271e-03  -1.0130618763300835e-21 8.5591549996953949e-21 -1.6952641197431439e-03  -7.9448570223782344e-22 7.0968631157060091e-21 -1.6412029489064033e-03  -1.9988316010797364e-21 1.0821752841502221e-20 -1.7788225456189142e-03  -1.0632527807530175e-21 1.0123189010952388e-20 -1.7500301697372241e-03  -1.4658739065979112e-21 1.4247390695266508e-21 -1.3072528495391817e-03  -8.7707456604199662e-22 1.0798497105415876e-21 -1.2810239348203616e-03  -8.8898047036716554e-22 1.7177696282716942e-21 -1.3299697378279351e-03  -2.1136730563358448e-22 7.3985777845806798e-22 -1.2575087038940384e-03  -2.3859401905647356e-22 1.3987484259472929e-21 -1.3056743714914896e-03  4.1722911313859384e-22 1.0675522727301536e-21 -1.2835839208393089e-03  4.2640693429302185e-22 4.3566767009258598e-22 -1.2354980190655287e-03  -3.7331982716562117e-22 1.9929012221032195e-21 -1.3550812427814160e-03  4.1991480386571057e-22 1.7105978065534443e-21 -1.3321207007675093e-03  3.2847452997698760e-22 2.4740124435899991e-20 -2.5672672476691164e-03  2.8899902450029694e-22 2.5498961357668833e-20 -2.6377851629782747e-03  1.5074121588774150e-21 2.5230837965058239e-20 -2.5956945399379693e-03  1.1046077324986349e-21 2.5769945775201715e-20 -2.6660680308840568e-03  1.6652796202363392e-22 2.6151268699171096e-20 -2.7094902191248920e-03  1.6946480233377968e-21 2.5388719160636986e-20 -2.6247022416107223e-03  1.7983732360497744e-21 2.9125355515438266e-20 -2.9933657021699225e-03  9.8613277991179213e-22 2.8731936863347738e-20 -2.9592603959481155e-03  1.1223078323101672e-21 2.9516597933199294e-20 -3.0420241930143033e-03  3.2248580469205832e-22 2.9124369800688794e-20 -3.0096769078120900e-03  2.0755962497610213e-22 2.8333006955123768e-20 -2.9300703991359664e-03  4.4425145308096824e-22 2.9923615637743615e-20 -3.0959930493668071e-03  1.7547805837130122e-21 2.3205629658988442e-20 -2.4245974164839416e-03  9.6000621276802095e-22 2.2604331415200943e-20 -2.3945353601913582e-03  1.0053460868317342e-21 2.3629259336210977e-20 -2.4603035413894121e-03  1.5908535842917706e-22 2.3043715251443953e-20 -2.4305932966380765e-03  1.3877347215368835e-22 2.2087585030501227e-20 -2.3639157842364022e-03  2.2871220264713779e-22 2.3948614635636662e-20 -2.4981667013397177e-03  4.1501366133797136e-22 1.7399761716508364e-20 -2.0569695316861071e-03  3.9899197158773982e-22 1.8328181473328575e-20 -2.1147101458067973e-03  1.3301961280417337e-21 1.7860655743576716e-20 -2.0861938921968954e-03  1.2931703525804428e-21 1.8732747662516952e-20 -2.1443877070446904e-03  3.2171386306864285e-22 1.9243710428738740e-20 -2.1740085992975758e-03  2.2353650953003216e-21 1.8326370475432132e-20 -2.1158702894552564e-03  2.2426229099738813e-21 1.5600965851562928e-20 -1.9456556971787554e-03  1.1751038191378849e-21 1.4759316391707457e-20 -1.9167667204685467e-03  1.3537662707146537e-21 1.6044731513863699e-20 -1.9726446020866162e-03  2.6383852070358401e-22 1.5224948033382042e-20 -1.9437908171814305e-03  1.2834820869472995e-22 1.3941956300587691e-20 -1.8881955484888774e-03  4.0964348506084491e-22 1.6458293701183782e-20 -1.9999009944115498e-03  1.6585258543247103e-22 6.1444254034250151e-21 -1.6148842087734478e-03  -2.8139219501196843e-22 7.6001405994926439e-21 -1.6681645239790142e-03  3.0031254977088405e-23 6.2085960966657119e-21 -1.6431687938064849e-03  7.9277574981259534e-23 8.4986820666660557e-21 -1.6965231448511514e-03  -3.2540055971686290e-22 9.3852092127997954e-21 -1.7224001719972144e-03  2.2853944561463232e-21 7.3382863819316042e-21 -1.6723560664773335e-03  2.2970368752628373e-21 3.8834974053871783e-21 -1.5156795302320835e-03  1.6872944060856112e-21 3.5730922054686211e-21 -1.4873799909583671e-03  1.6990942772044640e-21 4.1763553611087227e-21 -1.5385843481990546e-03  1.0774486510088489e-21 3.8803676809100081e-21 -1.5101991369100484e-03  1.0585734813353652e-21 3.2578124256261149e-21 -1.4594475393911782e-03  7.0375883342986770e-22 4.8341478731180595e-21 -1.5621898383712447e-03  1.0136589751449246e-21 1.4227678861310523e-22 -1.2139447891140718e-03  1.0536709744310696e-21 7.5540247530353633e-22 -1.2617867716383470e-03  1.7012211753364452e-21 4.9202949911679692e-22 -1.2399590407791018e-03  1.6821684063038560e-21 1.0867178702340902e-21 -1.2883210315516257e-03  1.0555222229939641e-21 1.3935115843415701e-21 -1.3102493770030595e-03  2.2782868429630091e-21 7.9271359287430936e-22 -1.2663741774435954e-03  -3.2240153012571705e-21 3.2171589555974960e-20 -3.4625777899899577e-03  -2.3368262844679851e-21 3.1779781762990107e-20 -3.3867587776306865e-03  -2.6498884810816736e-21 3.2440066145358425e-20 -3.4858721928426001e-03  -1.4487497834350824e-21 3.1386743527474640e-20 -3.3140136947682058e-03  -1.7617896931752192e-21 3.2047477470262484e-20 -3.4110446673121086e-03  -8.7149921127969279e-22 3.1653658279900322e-20 -3.3383611370243565e-03  -5.5719667931885811e-22 3.0990528801738776e-20 -3.2442208907501433e-03  -2.0749349238224460e-21 3.2708462894420986e-20 -3.5106707745173956e-03  -1.1853879037143447e-21 3.2315719337681610e-20 -3.4361151491812897e-03  -1.4990780332618230e-21 3.2977316650732831e-20 -3.5359538439151900e-03  -3.0764142173833588e-21 3.0135703343885838e-21 -1.4357682034871206e-03  -2.0798899655603856e-21 2.6289027528035237e-21 -1.4073884627809690e-03  -2.5226121493879108e-21 2.2548378612420798e-21 -1.3845724531909322e-03  -1.7153515136854711e-21 1.9543528095861730e-21 -1.3566312307952723e-03  -1.1755209040516407e-21 2.2964001258212615e-21 -1.3803101648266038e-03  -1.9040162777971129e-21 1.6419349121644803e-21 -1.3344317656242891e-03  -5.5259895718477078e-21 1.2880287007448839e-20 -1.8