<?xml version="1.0"?>
<VTKFile type="UnstructuredGrid"  version="0.1"  >
<UnstructuredGrid>
<Piece  NumberOfPoints="392" NumberOfCells="686">
<Points>
<DataArray  type="Float64"  NumberOfComponents="3"  format="ascii">3.999999999999964 0 0  4.249999999999965 0 0  4.124999999998478 0.2534792888374535 0  4.374999999998479 0.2534792888374535 0  4.499999999999966 0 0  4.249999999996992 0.506958577674907 0  4.624999999998479 0.2534792888374535 0  4.499999999996993 0.506958577674907 0  4.749999999996994 0.506958577674907 0  4.749999999999967 0 0  4.874999999998481 0.2534792888374535 0  4.999999999999968 0 0  4.374999999995506 0.7604378665123606 0  4.624999999995506 0.7604378665123606 0  4.499999999994019 1.013917155349814 0  5.99999999999997 0 0  6.249999999999971 0 0  6.124999999997403 0.2534792888376092 0  6.374999999997405 0.2534792888376092 0  6.499999999999972 0 0  6.249999999994837 0.5069585776752185 0  6.624999999997405 0.2534792888376092 0  6.499999999994838 0.5069585776752185 0  6.749999999994839 0.5069585776752185 0  6.749999999999972 0 0  6.874999999997407 0.2534792888376092 0  6.999999999999973 0 0  6.374999999992271 0.7604378665128277 0  6.624999999992271 0.7604378665128277 0  6.499999999989704 1.013917155350437 0  1.999999999999982 0 0  2.24999999999998 0 0  2.12499999999946 0.2613818370536612 0  2.374999999999459 0.2613818370536612 0  2.499999999999979 0 0  2.249999999998939 0.5227636741073225 0  2.624999999999457 0.2613818370536612 0  2.499999999998937 0.5227636741073225 0  2.749999999998935 0.5227636741073225 0  2.749999999999977 0 0  2.874999999999455 0.2613818370536612 0  2.999999999999975 0 0  2.374999999998417 0.7841455111609837 0  2.624999999998415 0.7841455111609837 0  2.499999999997895 1.045527348214645 0  1.999999999998379 2 0  1.74999999999856 2 0  1.874999999998781 1.716506350946107 0  1.624999999998962 1.716506350946107 0  1.499999999998741 2 0  1.749999999999184 1.433012701892215 0  1.374999999999143 1.716506350946107 0  1.499999999999365 1.433012701892215 0  1.249999999999545 1.433012701892215 0  1.249999999998922 2 0  1.124999999999324 1.716506350946107 0  0.9999999999991025 2 0  1.624999999999586 1.149519052838322 0  1.374999999999767 1.149519052838322 0  1.499999999999988 0.8660254037844294 0  7.999999999999975 0 0  8.249999999999975 0 0  8.124690294450405 0.261918262795331 0  8.374690294450405 0.261918262795331 0  8.499999999999975 0 0  8.249380588900834 0.523836525590662 0  8.624690294450405 0.261918262795331 0  8.499380588900834 0.523836525590662 0  8.749380588900834 0.523836525590662 0  8.749999999999975 0 0  8.874690294450406 0.261918262795331 0  8.999999999999977 0 0  8.374070883351264 0.785754788385993 0  8.624070883351264 0.785754788385993 0  8.498761177801693 1.047673051181324 0  9.998243232147571 1.493352101097468 0  9.747700510046972 1.487239507722953 0  9.872093487178645 1.236971854958944 0  9.873850255015896 1.743619753861476 0  9.996486464310319 0.986704202194936 0  9.74594374220972 0.9805916088204207 0  9.621550765078046 1.230859261584429 0  9.495401020109121 0.9744790154459053 0  9.999999999984821 2 0  9.749999999984439 2 0  9.623850255015515 1.743619753861476 0  9.499999999984059 2 0  9.373850255015135 1.743619753861476 0  9.497700510046592 1.487239507722953 0  9.24770051004621 1.487239507722953 0  9.249999999983679 2 0  9.123850255014755 1.743619753861476 0  8.999999999983299 2 0  9.371550765077664 1.230859261584429 0  3.999999999993654 2 0  3.749999999994383 2 0  3.874999999994342 1.744460791439874 0  3.624999999995071 1.744460791439874 0  3.499999999995112 2 0  3.74999999999503 1.488921582879748 0  3.3749999999958 1.744460791439874 0  3.499999999995759 1.488921582879748 0  3.249999999996488 1.488921582879748 0  3.249999999995841 2 0  3.124999999996529 1.744460791439874 0  2.99999999999657 2 0  3.624999999995718 1.233382374319621 0  3.374999999996447 1.233382374319621 0  3.499999999996406 0.9778431657594949 0  5.99999999998782 2 0  5.74999999998855 2 0  5.87499999998929 1.751159762945844 0  5.62499999999002 1.751159762945844 0  5.499999999989278 2 0  5.749999999990761 1.502319525891687 0  5.374999999990749 1.751159762945844 0  5.49999999999149 1.502319525891687 0  5.24999999999222 1.502319525891687 0  5.249999999990007 2 0  5.124999999991478 1.751159762945844 0  4.999999999990736 2 0  5.624999999992232 1.253479288837531 0  5.37499999999296 1.253479288837531 0  5.499999999993702 1.004639051783375 0  7.999999999982053 2 0  7.749999999982765 2 0  7.874963130275843 1.744524651647608 0  7.624963130276555 1.744524651647608 0  7.499999999983477 2 0  7.749926260569634 1.489049303295215 0  7.374963130277267 1.744524651647608 0  7.499926260570346 1.489049303295215 0  7.249926260571058 1.489049303295215 0  7.24999999998419 2 0  7.12496313027798 1.744524651647608 0  6.999999999984902 2 0  7.624889390863425 1.233573954942823 0  7.374889390864137 1.233573954942823 0  7.499852521157216 0.9780986065904302 0  6.749963130281582 1.004962518160435 0  6.874963130284149 0.751483229322826 0  6.99992626057346 0.9960078809704336 0  6.999963130286717 0.4980039404852168 0  7.124926260576027 0.7425285921328244 0  7.249926260578595 0.4890493032952151 0  7.124963130289284 0.2445246516476076 0  7.249889390865338 0.9870532437804319 0  7.374889390867905 0.7335739549428226 0  4.74999999999394 1.011597629458204 0  4.874999999995428 0.7581183406207508 0  4.999999999993861 1.009278103566595 0  4.999999999996914 0.5046390517832973 0  5.124999999995348 0.755798814729141 0  5.249999999996835 0.5023195258916875 0  5.124999999998401 0.2511597629458437 0  5.249999999993781 1.006958577674985 0  5.374999999995268 0.7534792888375312 0  2.749999999997523 1.028606302600858 0  2.874999999998043 0.7672244655471963 0  2.999999999997151 1.01168525698707 0  2.999999999998563 0.505842628493535 0  3.124999999997671 0.7503034199334088 0  3.249999999998191 0.4889215828797475 0  3.124999999999083 0.2444607914398737 0  3.249999999996779 0.9947642113732824 0  3.374999999997298 0.7333823743196212 0  3.874999999999075 0.2444607914398737 0  3.999999999997589 0.4979400802773273 0  3.749999999998185 0.4889215828797475 0  4.124999999996103 0.7514193691147808 0  3.874999999996699 0.742400871717201 0  3.999999999995213 0.9958801605546546 0  4.249999999994616 1.004898657952234 0  3.624999999997295 0.7333823743196212 0  3.74999999999581 0.9868616631570748 0  5.874999999998403 0.2511597629458437 0  5.999999999995836 0.5046390517834529 0  5.749999999996836 0.5023195258916875 0  6.124999999993269 0.7581183406210621 0  5.874999999994269 0.7557988147292967 0  5.999999999991703 1.009278103566906 0  6.249999999990703 1.011597629458671 0  5.62499999999527 0.7534792888375312 0  5.749999999992703 1.00695857767514 0  7.874963130289285 0.2445246516476076 0  7.999653424739715 0.5064429144429385 0  7.749926260578595 0.4890493032952151 0  8.124343719190144 0.7683611772382695 0  7.874616555029025 0.7509675660905462 0  7.999306849479455 1.012885828885877 0  8.249034013640575 1.0302794400336 0  7.624889390867906 0.7335739549428226 0  7.749579685318335 0.9954922177381537 0  1.874999999999984 0.2165063509461073 0  1.999999999999462 0.4778881879997686 0  1.749999999999985 0.4330127018922147 0  2.12499999999894 0.7392700250534299 0  1.874999999999463 0.694394538945876 0  1.999999999998942 0.9557763759995372 0  2.249999999998418 1.000651862107091 0  1.624999999999986 0.649519052838322 0  1.749999999999465 0.9109008898919833 0  2.374999999998016 1.284145511160984 0  2.124999999998539 1.23927002505343 0  2.249999999998137 1.522763674107322 0  1.99999999999866 1.477888187999769 0  1.874999999999063 1.194394538945876 0  2.124999999998258 1.761381837053661 0  8.747921138378551 1.029374542247469 0  8.87323084392812 0.7674562794521382 0  8.997081098955407 1.011076033313615 0  8.998540549477692 0.5055380166568073 0  9.122390804504978 0.7491577705182837 0  9.24770051005455 0.4872395077229527 0  9.123850255027264 0.2436197538614763 0  9.246241059532263 0.99277752437976 0  9.371550765081835 0.7308592615844289 0  2.874999999996901 1.761381837053661 0  2.99999999999686 1.505842628493535 0  2.749999999997232 1.522763674107322 0  2.874999999997192 1.267224465547196 0  3.124999999996819 1.250303419933409 0  2.624999999997564 1.284145511160984 0  4.374999999993928 1.260437866512361 0  4.124999999994524 1.251419369114781 0  4.249999999993836 1.506958577674907 0  3.999999999994433 1.497940080277327 0  3.874999999995121 1.242400871717201 0  4.124999999993745 1.753479288837454 0  4.874999999991557 1.753479288837454 0  4.999999999992299 1.504639051783297 0  4.749999999992378 1.506958577674907 0  4.874999999993119 1.258118340620751 0  5.12499999999304 1.255798814729141 0  4.624999999993198 1.260437866512361 0  6.374999999989234 1.260437866512828 0  6.124999999990233 1.258118340621062 0  6.249999999988763 1.506958577675218 0  5.999999999989762 1.504639051783453 0  5.874999999991232 1.255798814729297 0  6.124999999988292 1.753479288837609 0  6.874999999986102 1.753479288837609 0  6.99996313027918 1.498003940485217 0  6.749999999987303 1.506958577675218 0  6.874963130280381 1.251483229322826 0  7.124926260572259 1.242528592132824 0  6.624999999988503 1.260437866512828 0  8.374070883346782 1.285754788385993 0  8.124343719185664 1.268361177238269 0  8.249380588891873 1.523836525590662 0  7.999653424730753 1.506442914442939 0  7.874616555024544 1.250967566090546 0  8.124690294436963 1.761918262795331 0  8.874690294437897 1.761918262795331 0  8.998540549469354 1.505538016656807 0  8.749380588892496 1.523836525590662 0  8.873230843923952 1.267456279452138 0  9.122390804500808 1.249157770518284 0  8.624070883347095 1.285754788385993 0  1.289362916539685 0.9660984820476399 0  1.164362916539464 1.249592131101533 0  1.078725833079383 1.066171560310851 0  1.039362916539243 1.533085780155425 0  0.9537258330791614 1.349665209364743 0  0.82872583307894 1.633158858418636 0  0.9143629165390212 1.816579429209318 0  0.8680887496190801 1.166244638574061 0  0.7430887496188587 1.449738287627954 0  0.
[...]
<PointData  Vectors="u"> 
<DataArray  type="Float64"  Name="u"  NumberOfComponents="3" format="ascii">-2.2488750690201696e-22 -4.7606338154262207e-22 -2.3915717956441777e-04  -2.5230164793733490e-22 -5.5483626083578336e-22 -2.6502174021067004e-04  -1.6067581391174022e-22 -5.1419903292383111e-22 -2.5206134888271654e-04  -1.7967564842888521e-22 -5.9420907393171477e-22 -2.7835426867403221e-04  -2.5709971608304792e-22 -6.2908446818278482e-22 -2.9165043432200031e-04  -9.1317788779960134e-23 -5.5158635762167149e-22 -2.6522075362035339e-04  -1.8317401807074030e-22 -6.7064921582218635e-22 -3.0539366739101929e-04  -1.0863686254397540e-22 -6.2815918001468506e-22 -2.9194412444885111e-04  -1.0668621054439015e-22 -7.0830842365898183e-22 -3.1938626244230894e-04  -2.4924270542062035e-22 -7.0653184708488474e-22 -3.1899233767664016e-04  -1.7306774591340221e-22 -7.3622651567015907e-22 -3.3312416673243186e-04  -2.5110686746650599e-22 -7.7605804163224212e-22 -3.4700686644769036e-04  -1.9410538335669715e-23 -5.8920768262981996e-22 -2.7862612898409893e-04  -2.6080536799000465e-23 -6.6594752941364046e-22 -3.0577068390145605e-04  5.7846197008255738e-23 -6.2228576155930987e-22 -2.9228581610932729e-04  -2.7740080541042022e-22 -1.1109548853824367e-21 -4.6644916862653306e-04  -2.8960114279077832e-22 -1.1888758694287487e-21 -4.9833486223108993e-04  -1.9693745095669649e-22 -1.1481778591354339e-21 -4.8301745845929578e-04  -1.9253265064860384e-22 -1.2332296142275571e-21 -5.1548332883997593e-04  -2.8513171374526824e-22 -1.2730665511477896e-21 -5.3113258147523420e-04  -1.1242835835620710e-22 -1.1902140648703880e-21 -5.0015823985432640e-04  -2.0018262447804173e-22 -1.3126023277294390e-21 -5.4888208244053725e-04  -1.1374381164384923e-22 -1.2704583662372609e-21 -5.3332428213965415e-04  -1.1595800833402524e-22 -1.3469333198427365e-21 -5.6746206934797237e-04  -2.8006563948114289e-22 -1.3470889769356073e-21 -5.6490314841854997e-04  -2.0114421628100755e-22 -1.3843752231300018e-21 -5.8325896303914845e-04  -2.8320464793069712e-22 -1.4278694217857992e-21 -5.9970241103263352e-04  -2.6492204665397894e-23 -1.2321277599205499e-21 -5.1789621687918172e-04  -2.0830140694517218e-23 -1.3123994774455941e-21 -5.5175356181724029e-04  7.3714558093793612e-23 -1.2820851734152802e-21 -5.3576598243921484e-04  -1.1702608033913865e-23 -1.0558911924964223e-22 -6.9512817804170637e-05  -4.6406909983377974e-23 -1.3288009038466337e-22 -8.6272640418201980e-05  -4.4604986714501785e-23 -1.1519785774000367e-22 -7.7620308845437227e-05  -9.0204489296673717e-23 -1.3537940508594393e-22 -9.5134355316043218e-05  -9.9168676245861144e-23 -1.5705810950273671e-22 -1.0448700129163984e-04  -1.1088535342486814e-23 -1.2392311124310741e-22 -8.6165340839861461e-05  -5.7548344278777644e-23 -1.8338794031447450e-22 -1.1405490697368667e-04  3.3536829243514235e-23 -1.5950915998567634e-22 -1.0440668669221897e-04  -1.1974369188974808e-23 -2.0684302944978205e-22 -1.2400745233201701e-04  -1.0868609708522521e-22 -2.1639256059214294e-22 -1.2405975756906858e-04  -8.9055052112997161e-23 -2.3786167579345142e-22 -1.3428764387685789e-04  -1.5104336001116748e-22 -2.6907850593709825e-22 -1.4489868139826138e-04  3.0859911066864749e-23 -1.4748109483819384e-22 -9.5130412164019879e-05  4.8902242545715789e-23 -1.9012178305197937e-22 -1.1407353902722562e-04  6.8471959770897498e-23 -1.6467903047729004e-22 -1.0450053114889783e-04  1.1346263195830623e-22 -7.1103335160855993e-23 -6.9988481993561648e-05  1.0699421424949032e-22 -6.6186675090210679e-23 -5.4690361672410682e-05  1.2409391191500764e-22 -7.5412457682972144e-23 -6.1911120250823863e-05  7.4043028028211064e-23 -5.5119348243820546e-23 -4.7437431253441554e-05  5.7778186109717440e-23 -5.1738241509636228e-23 -4.1047287487342297e-05  5.7620288688583715e-23 -7.2450953987489066e-23 -5.4305007130472830e-05  6.2206320728796727e-23 -5.3696956705134921e-23 -3.4673419234825110e-05  6.5198631337491948e-23 -2.3060442120004690e-23 -4.0686447358281458e-05  2.6096693034949459e-23 -2.8735965999092976e-23 -2.8835437567807638e-05  7.8250193547437022e-23 -8.0113786122311660e-23 -2.9164950882745370e-05  3.6780402522518092e-23 -3.0787115521763608e-23 -2.3728622953152584e-05  1.4382951932505571e-22 -2.0358927279789535e-23 -1.9150376508818404e-05  7.8116624269064874e-24 -5.6067805990832158e-23 -4.7180174577495349e-05  9.2217687219781747e-24 -2.6081899148100037e-23 -3.4447264736857271e-05  1.0779567383882384e-24 -3.8924457995324722e-23 -4.0540329090947813e-05  2.1227468858677794e-23 -1.7784518125918165e-21 -7.5507488916488777e-04  1.7814219387904734e-22 -1.8355275114445779e-21 -7.9686764686198784e-04  1.3275916619805617e-22 -1.8110766032211906e-21 -7.7542796652426186e-04  2.6899862878399706e-22 -1.8527011735306210e-21 -8.1698433477898587e-04  3.5630811808016961e-22 -1.8615607245022194e-21 -8.3907888657404849e-04  1.8920635256678590e-22 -1.8351358595508401e-21 -7.9567700411108588e-04  4.1956799583333852e-22 -1.8612390953752775e-21 -8.5903401166704618e-04  2.9652304814609897e-22 -1.8612801836428371e-21 -8.3702186047115816e-04  4.1290570351641556e-22 -1.8504753341208647e-21 -8.7899969496170330e-04  5.5556816238455821e-22 -1.8515327938014125e-21 -8.8176832617906608e-04  5.8469327747257457e-22 -1.8309068878504727e-21 -9.0162708774681405e-04  7.7636253762254700e-22 -1.7996407900927368e-21 -9.2499948988860052e-04  1.9181476307803796e-22 -1.8530310225337938e-21 -8.1570008275019281e-04  2.7160299899296038e-22 -1.8630606651701905e-21 -8.5700896253717782e-04  1.7358964421242397e-22 -1.8756284964167531e-21 -8.3564749509150622e-04  -1.7094130627673543e-22 -1.0429218086524773e-21 -1.0930329985908386e-03  -1.6374146617227767e-22 -1.3353812756890980e-21 -1.0482246150762462e-03  1.2837152320129033e-22 -1.1828555573094275e-21 -1.0717320574626238e-03  -5.2540387142220674e-22 -1.2168302509699313e-21 -1.0700319359247749e-03  4.2782275725639444e-22 -1.0337263009125352e-21 -1.0956488561075519e-03  4.2137632907499084e-22 -1.3236711417619507e-21 -1.0504143418798772e-03  1.4358927546067031e-22 -1.4743615213495043e-21 -1.0269290309339754e-03  3.3531943058531436e-22 -1.5575477468111647e-21 -1.0057347978133565e-03  -1.0219710405217043e-21 -1.0498650765901513e-21 -1.0933592475047907e-03  -7.2141336058593899e-22 -1.3474314239296034e-21 -1.0482526775545129e-03  -3.4099620844196196e-22 -1.4563235823532572e-21 -1.0256995139635906e-03  -4.5943662938290161e-22 -1.5513089344827732e-21 -1.0038918983521544e-03  -1.4966137918109802e-22 -1.6369176135501475e-21 -9.8182524988376686e-04  -2.1029936080126641e-23 -1.5629581028023145e-21 -1.0040799260389514e-03  1.0026227034353599e-22 -1.7161344880861329e-21 -9.6058335908303023e-04  -2.3146774723263280e-22 -1.6952452686039328e-21 -9.6029269592874211e-04  4.7595203858885036e-23 -1.7586444566356647e-21 -9.3873797386226897e-04  -5.5998407463468644e-23 -1.8168635807307906e-21 -9.1777222311927118e-04  1.7080389373685706e-22 -1.6412260118365395e-21 -9.8290600255041818e-04  2.9314470990270639e-22 -4.6315218884201822e-22 -2.4034980791193914e-04  2.6690520070093346e-22 -4.1757601360300638e-22 -2.1516534685488164e-04  2.5229766636751277e-22 -4.4011211616858138e-22 -2.2737061753015607e-04  2.3091753133091224e-22 -3.9871508790622899e-22 -2.0267699608169060e-04  2.6387603789353676e-22 -3.6505715731548877e-22 -1.9094506533506953e-04  1.6995639100413919e-22 -4.2048234080516097e-22 -2.1468089020226796e-04  2.1933767302514847e-22 -3.3874060828194258e-22 -1.7897431713116807e-04  1.6167796438803073e-22 -3.6587747689766544e-22 -1.9048774861960986e-04  1.5189171990611785e-22 -3.0723000305311692e-22 -1.6731658800377285e-04  2.7274247995723354e-22 -3.1894343103407948e-22 -1.6775503270238923e-04  2.0325017454263278e-22 -2.9534880310465275e-22 -1.5633402204632285e-04  2.5121391461250720e-22 -2.9826358553506131e-22 -1.4566851966879465e-04  1.1022998593001434e-22 -3.8777381497430558e-22 -2.0228727434252959e-04  8.9037862210474509e-23 -3.3183290865522041e-22 -1.7860624429097055e-04  3.4018944551359360e-23 -3.6119220591930469e-22 -1.9019229716023636e-04  3.8573365378066478e-22 -1.1260859711689297e-21 -4.7213421512822131e-04  3.6411065793133669e-22 -1.0380311763086083e-21 -4.4032976158824174e-04  2.9057703073252459e-22 -1.0787960171230992e-21 -4.5553789148260464e-04  2.7942863922827825e-22 -9.9312528318527831e-22 -4.2416769164488262e-04  3.4822072370064458e-22 -9.4610423047973179e-22 -4.0933303095102192e-04  2.0081693906167357e-22 -1.0324242968062473e-21 -4.3917252785756619e-04  3.0335826436897116e-22 -9.2275384759736185e-22 -3.9362091965229661e-04  2.1062186581136443e-22 -9.6102838176917803e-22 -4.0826146907173766e-04  2.1714221651568266e-22 -8.6382028465533616e-22 -3.7818181116231077e-04  4.1788461228708312e-22 -8.8382731987666582e-22 -3.7914395730091294e-04  3.1823555978545651e-22 -8.2505896210616383e-22 -3.6388699598625111e-04  4.0568625127937014e-22 -7.8230909383563497e-22 -3.4975761186076552e-04  1.4503600390697654e-22 -9.8987356313846070e-22 -4.2304740174226420e-04  1.3202468788668376e-22 -9.0778238154923844e-22 -3.9262528641753201e-04  6.0169089877468934e-23 -9.4595062314871712e-22 -4.0719638784807123e-04  3.8777084334972309e-22 -1.7419992549886930e-21 -7.5532799620259131e-04  3.9825398989848690e-22 -1.6632666879027661e-21 -7.1653639981546018e-04  3.8775256643030894e-22 -1.7019338635483314e-21 -7.3570956648471653e-04  3.1318420484990716e-22 -1.6013771559898967e-21 -6.9746146915295945e-04  3.5436271168354875e-22 -1.5609444338067522e-21 -6.7877130074129363e-04  2.5164342678210371e-22 -1.6606615698599283e-21 -7.1635143021683779e-04  2.9145340755224212e-22 -1.5253069774835944e-21 -6.6029183831628772e-04  2.0704389849183820e-22 -1.5728025286013223e-21 -6.7855606679594191e-04  2.2860311608041213e-22 -1.5022439248863961e-21 -6.4180761047088531e-04  3.5670849551200636e-22 -1.4966270277339545e-21 -6.4251896490970218e-04  2.9705417269796939e-22 -1.4648984391427367e-21 -6.2422993311537080e-04  3.5726173444066802e-22 -1.4329426921369171e-21 -6.0699525876045982e-04  1.5539976933649351e-22 -1.6179250733104763e-21 -6.9728546350098636e-04  1.3990067734432919e-22 -1.5486612494236455e-21 -6.5981094455881564e-04  5.0367038588235727e-23 -1.5773940738840419e-21 -6.7836176199610537e-04  6.6658446904542777e-23 -1.3497499187566196e-21 -5.7000199827005277e-04  -1.7854588393464723e-23 -1.3831605382074341e-21 -5.8646482969841509e-04  5.8786233112232518e-23 -1.4169629197102769e-21 -6.0508391280792047e-04  -1.1578130867339451e-22 -1.4261930391442131e-21 -6.0248351203055729e-04  -2.2539219076552107e-23 -1.4639682050553127e-21 -6.2208625794177817e-04  -1.1347383581473963e-22 -1.5092286626394953e-21 -6.3850222406366421e-04  -2.0128291374743303e-22 -1.4693826624933259e-21 -6.1861236745006695e-04  5.0481254999083951e-23 -1.4998500608542973e-21 -6.4120897156353426e-04  -2.8081898805874282e-23 -1.5441606621374013e-21 -6.5871973524076919e-04  6.2011080009478597e-23 -7.0810732160866913e-22 -3.1985613472059160e-04  -1.0504215171782458e-23 -7.5064085931837512e-22 -3.3363222516410773e-04  4.6320321390657271e-23 -7.7000107371412847e-22 -3.4817585939948527e-04  -9.0032937565866357e-23 -7.8667827707030058e-22 -3.4752354953475844e-04  -2.0425745520834184e-23 -8.2726437244916151e-22 -3.6222339190032958e-04  -1.0415680060835630e-22 -8.5946784088422679e-22 -3.7641318898641769e-04  -1.7055258048210378e-22 -8.1158247552743465e-22 -3.6154979960333419e-04  5.4702279961785238e-23 -8.6660167051518001e-22 -3.7727378015191634e-04  -3.3490509769946384e-23 -9.0293022361608927e-22 -3.9164187950195019e-04  7.9951887917393260e-23 -1.9539099101725190e-22 -1.2411368754096800e-04  1.9325489863403345e-23 -2.1024039585733680e-22 -1.3432476192942242e-04  6.2350132811793969e-23 -2.4013412271583818e-22 -1.4499083398975020e-04  -5.4340512304710342e-23 -2.3982448480382335e-22 -1.4487279458648826e-04  -3.1836300403447431e-23 -2.7641609587242217e-22 -1.5579600070175282e-04  -5.7726686824701594e-23 -2.9835218674902867e-22 -1.6691436515686446e-04  -1.0447825146615448e-22 -2.7168001375167653e-22 -1.5574188142843863e-04  4.0260877622580693e-23 -3.0258196290018148e-22 -1.6704476151615104e-04  -7.3426502058903664e-24 -3.3181036640011156e-22 -1.7840154496001533e-04  -1.3861701971546237e-22 -4.4071586486979017e-22 -2.2656897308907903e-04  -6.3453740761781037e-23 -4.8012014797863426e-22 -2.3927973667778858e-04  -7.6656604676726999e-23 -4.1415682384775203e-22 -2.1419714833771875e-04  -2.2107216424048633e-23 -5.1709992737085705e-22 -2.5224821483774850e-04  -1.3152439129595369e-23 -4.4455063144566268e-22 -2.2670498548292626e-04  5.5800890396580885e-23 -4.7579241436043670e-22 -2.3948368667720503e-04  6.2508254250696483e-23 -5.4832783857209032e-22 -2.6547626349610753e-04  -3.1033493234278060e-23 -3.8635329007904038e-22 -2.0206415981721188e-04  5.0347224960927579e-23 -4.1510074372673969e-22 -2.1436663652780688e-04  -1.9893236879879593e-22 -1.0698996452767475e-21 -4.5143210909498807e-04  -1.1196799383556462e-22 -1.1044985756564018e-21 -4.6793412589300878e-04  -9.6302624606206414e-23 -1.0280145508106958e-21 -4.3660666796914937e-04  -3.4227979379153474e-23 -1.1502476316716344e-21 -4.8496592441434945e-04  -4.4489453928794667e-23 -1.0683602947769303e-21 -4.5297068966686812e-04  4.1354006394143730e-23 -1.1114328930896420e-21 -4.6968513582307432e-04  5.3912256517862419e-23 -1.2020731255946042e-21 -5.0229146131804570e-04  -3.5625447442278755e-23 -9.8516380000154887e-22 -4.2188053454503976e-04  6.0800100609807306e-23 -1.0324928708205483e-21 -4.3798330009447946e-04  4.9373798462616808e-24 -1.7418072938803093e-21 -7.3435233558710158e-04  9.3654391649820715e-23 -1.7793457979768322e-21 -7.5499948566221564e-04  7.4290072349217106e-24 -1.6992735456912636e-21 -7.1500678654996298e-04  1.2150274763362836e-22 -1.8086860795990139e-21 -7.7525789508623409e-04  6.8411072198479154e-23 -1.7330697649869811e-21 -7.3559486846231682e-04  7.1758132707027127e-23 -1.7523262345058098e-21 -7.5537464223239146e-04  8.9459202156494644e-23 -1.8494000207768823e-21 -7.9510087096322599e-04  1.8924044184711587e-23 -1.6424022399116939e-21 -6.9668312009374400e-04  7.1556317843637500e-23 -1.6670096272517879e-21 -7.1644285579432350e-04  -1.1838603398925352e-23 -8.7171142239503302e-23 -6.1622023275223817e-05  4.1994543454722687e-24 -9.4846543862843817e-23 -6.9381874038841661e-05  -2.0395029925295337e-23 -6.6069235713748774e-23 -5.4155436152409672e-05  -1.5067796753279200e-23 -1.1166821890181940e-22 -7.7588356720888617e-05  2.0939882105863702e-23 -7.9826723127577866e-23 -6.1552732632953107e-05  2.9887365337305559e-23 -9.8496671280083502e-23 -6.9407499443022700e-05  3.0282895297079499e-23 -1.3377344003562610e-22 -8.6225645619174735e-05  2.1360029410835704e-23 -4.1118900706284917e-23 -4.7126110073835045e-05  4.9903912678032594e-24 -6.3412138566506037e-23 -5.4145615400851417e-05  9.3228613636662547e-23 -1.3558210704063208e-22 -9.5291022082773686e-05  1.1516372724686767e-22 -1.2873024082579659e-22 -7.7713848136065075e-05  1.1742697895022802e-22 -1.1173441905130022e-22 -8.6459703250118302e-05  1.2779043596980900e-22 -1.0463166752506244e-22 -6.9604529971282239e-05  5.6974820859776178e-23 -8.0179537584691626e-23 -6.1642775321999314e-05  1.2420331729410504e-22 -8.6396018694183357e-23 -7.8020452338913046e-05  2.1263145066138189e-22 -1.8494908519964442e-21 -8.7700132108973117e-04  3.5528531175757318e-22 -1.8256578922423547e-21 -8.9895992854704281e-04  2.5361134755688841e-22 -1.7824360386833526e-21 -9.1913275682487970e-04  5.4449411553050869e-22 -1.7971351360042297e-21 -9.2159180457674576e-04  4.4197080289378016e-22 -1.7472917842078386e-21 -9.4164524110583936e-04  6.8970128552868804e-22 -1.6983661461674898e-21 -9.6485346997975195e-04  7.7418227873473357e-22 -1.7559811379173755e-21 -9.4479751304666943e-04  3.0057643127886164e-22 -1.6835959531467894e-21 -9.6201123776185938e-04  5.3089727890895388e-22 -1.6280928443644907e-21 -9.8514327866173514e-04  2.0964957654561796e-22 -2.3724376588858015e-22 -1.3484717007409983e-04  1.4258059492135589e-22 -2.6261306372265892e-22 -1.4525461376386305e-04  1.3338616933224258e-22 -2.0580549296088018e-22 -1.2437049968085781e-04  9.7788093545190477e-23 -2.2519777616945810e-22 -1.3451092866865569e-04  9.1557685033385251e-23 -2.7443041776184197e-22 -1.5599092081229320e-04  1.0719980361179791e-22 -1.9322502185630694e-22 -1.1425101321772895e-04  1.3588118695000477e-22 -5.8518382698967845e-22 -2.7897842674355660e-04  1.2564715753599062e-22 -5.1829044888838999e-22 -2.5253926431908488e-04  1.9109116511816301e-22 -5.4693899331424659e-22 -2.6587907051272473e-04  1.8224105155158948e-22 -4.8446647387626930e-22 -2.3983378674993116e-04  1.1018070066984399e-22 -4.4591843817271998e-22 -2.2695599218438777e-04  2.5076479511463333e-22 -5.0562987341126312e-22 -2.5300106760167690e-04  3.1296575336351592e-22 -7.2573185096872230e-22 -3.3495839164510095e-04  2.2028889950677028e-22 -7.7969080170585460e-22 -3.4891508264768686e-04  2.1214892887470097e-22 -6.8919206947282571e-22 -3.2044256410499399e-04  1.1683252003508608e-22 -7.3336446660857725e-22 -3.3423455371043496e-04  1.4054108671436969e-22 -8.2199283257394965e-22 -3.6302888855046866e-04  1.3119139757190369e-22 -6.5915474405848034e-22 -3.0621819712511720e-04  1.3389832183243930e-22 -1.2431813969415320e-21 -5.1954233226322562e-04  1.3444473387385814e-22 -1.1501516330044858e-21 -4.8651863312607096e-04  2.2088901055370938e-22 -1.1920864743892133e-21 -5.0353683984683721e-04  2.3001137830405501e-22 -1.1083165559085372e-21 -4.7093650780922390e-04  1.2342394176281807e-22 -1.0690537038649728e-21 -4.5434430303080143e-04  3.1626408509281612e-22 -1.1483395128477151e-21 -4.8773590004787276e-04  2.8823430564955013e-22 -1.4048889552614663e-21 -5.8899494970782737e-04  2.2020503079941010e-22 -1.4310776721894807e-21 -6.0600638894523677e-04  2.1389871738623991e-22 -1.3609809156152559e-21 -5.7109990917178337e-04  1.2038696674846594e-22 -1.3886379289471405e-21 -5.8793872100313164e-04  1.3188610164438408e-22 -1.4670364995323071e-21 -6.2338701254098104e-04  1.1366120051899147e-22 -1.3152300730803458e-21 -5.5336603353825465e-04  1.4905764945740070e-22 -1.8709368359683238e-21 -8.1494680776527403e-04  1.7349759861521716e-22 -1.7994719292497894e-21 -7.7493873217459621e-04  2.3717669458975753e-22 -1.8300672990735454e-21 -7.9460593447141343e-04  2.5227136996657744e-22 -1.7509124623051924e-21 -7.5510441672107544e-04  1.7898574186768108e-22 -1.7104288306829242e-21 -7.3569693704285486e-04  3.2881621175401389e-22 -1.7910159056063856e-21 -7.7467584558890885e-04  8.4615421965073051e-23 -1.8392024080804304e-21 -8.9670516252123272e-04  1.1767015365211957e-22 -1.7907140799309298e-21 -9.1808101213129841e-04  1.2505910233223289e-22 -1.8439621741038443e-21 -8.7619425363902000e-04  1.6364247431737474e-22 -1.8156275485245205e-21 -8.9747329474994383e-04  1.7701686978980346e-22 -1.7424311027106190e-21 -9.3981211907712332e-04  1.6072638337663359e-22 -1.8826190202795728e-21 -8.5586200201857464e-04  9.1300332880633144e-24 -2.3163855262002377e-23 -3.0474874098441530e-05  9.1207555176211979e-24 -1.2771337558344766e-23 -2.5151206523460057e-05  3.9522273676661693e-23 -1.6160836424488227e-23 -2.1722099312298466e-05  2.3958795735538390e-23 -8.3115391138397866e-24 -2.0338117547205680e-05  4.4993574611083851e-23 -1.7880341024492043e-24 -1.7213554283036403e-05  1.7483098273912349e-23 -1.0281330815406958e-23 -1.3241642442638920e-05  4.5998781613293463e-23 -1.0769911190191885e-23 -1.6059267752699142e-05  7.4179293884924319e-23 6.1668995383415343e-25 -1.4354397145853693e-05  -3.0466391729305731e-24 -1.4640176999964778e-24 -1.0703488359780210e-05  -3.7945664191516966e-23 5.9488657287766338e-24 -8.4514451649736017e-06  -2.7925560951911994e-22 -1.5106398824415510e-21 -6.3569562059807372e-04  -1.9027115714338685e-22 -1.5551258442854791e-21 -6.5521255054238920e-04  -2.1453082747115787e-22 -1.6048752068586789e-21 -6.7367805279347351e-04  -1.1117994988605395e-22 -1.6531564043539999e-21 -6.9397634939809077e-04  -6.0874897352264106e-23 -1.6032192628986002e-21 -6.7593378271537004e-04  -1.1252080218369678e-22 -1.6967952142154714e-21 -7.1388127760768682e-04  -2.6138053