<?xml version="1.0"?>
<VTKFile type="UnstructuredGrid"  version="0.1"  >
<UnstructuredGrid>
<Piece  NumberOfPoints="13155" NumberOfCells="25882">
<Points>
<DataArray  type="Float64"  NumberOfComponents="3"  format="ascii">0.1454902738332748 -15.97121238708496 19.23331451416016  0.2000000029802322 -16.0696907043457 19.1511116027832  2.514793174794735e-15 -16.0696907043457 19.1511116027832  2.505459083474229e-15 -15.9172534942627 19.27799224853516  0.3033701479434967 -15.95847129821777 19.24388694763184  0.4000000059604645 -16.0696907043457 19.1511116027832  2.496063794023284e-15 -15.76381397247314 19.40365791320801  0.1811874359846115 -15.83084297180176 19.3490161895752  2.486607518200137e-15 -15.60938262939453 19.52810287475586  0.1678137630224228 -15.67213726043701 19.47778511047363  0.4992842972278595 -15.94091510772705 19.25843238830566  0.6000000238418579 -16.0696907043457 19.1511116027832  0.401216059923172 -15.82449054718018 19.35421180725098  0.3096794784069061 -15.71394634246826 19.44407081604004  0.699999988079071 -15.93662071228027 19.26198577880859  0.800000011920929 -16.0696907043457 19.1511116027832  2.477091103037735e-15 -15.4539680480957 19.65131759643555  0.1693062037229538 -15.5245943069458 19.5955867767334  0.3231367170810699 -15.59501552581787 19.53958702087402  0.6036863923072815 -15.80538177490234 19.36981964111328  0.5033078789710999 -15.67348575592041 19.47669982910156  0.8999999761581421 -15.93662071228027 19.26198577880859  1 -16.0696907043457 19.1511116027832  2.467515183810789e-15 -15.29758071899414 19.77329635620117  0.1726995408535004 -15.37592792510986 19.71245384216309  0.800000011920929 -15.80278301239014 19.37193870544434  0.3396665155887604 -15.44734859466553 19.65653610229492  0.4591535627841949 -15.53036785125732 19.59100914001465  0.7100203633308411 -15.67227268218994 19.47767639160156  0.6189196705818176 -15.53988075256348 19.58346557617188  1.100000023841858 -15.93662071228027 19.26198577880859  1.200000047683716 -16.0696907043457 19.1511116027832  2.457880184035771e-15 -15.14023113250732 19.89402961730957  0.1726992577314377 -15.21905994415283 19.83381462097168  1 -15.80278301239014 19.37193870544434  0.3542799353599548 -15.29806804656982 19.77293968200684  0.905468225479126 -15.67239189147949 19.47758102416992  0.5330990552902222 -15.39274215698242 19.69932746887207  0.8138397932052612 -15.54378604888916 19.58036613464355  0.736111581325531 -15.41718101501465 19.68020629882812  2.44818695074563e-15 -14.98192882537842 20.01351356506348  0.1726987510919571 -15.06123447418213 19.95392799377441  1.299999952316284 -15.93662071228027 19.26198577880859  1.399999976158142 -16.0696907043457 19.1511116027832  1.200000047683716 -15.80278301239014 19.37193870544434  0.3453958928585052 -15.14028930664062 19.89401054382324  1.100000023841858 -15.66818714141846 19.4809627532959  0.5204423069953918 -15.21828937530518 19.83440589904785  1.005419254302979 -15.5417308807373 19.58199691772461  0.702947199344635 -15.27706241607666 19.7891731262207  0.9108297228813171 -15.41807556152344 19.67950630187988  0.8409191370010376 -15.32400226593018 19.75284767150879  2.438436119215075e-15 -14.8226842880249 20.13173675537109  0.1726979464292526 -14.9024600982666 20.07278442382812  0.3453925251960754 -14.98198795318604 20.01349639892578  1.5 -15.93662071228027 19.26198577880859  1.600000023841858 -16.0696907043457 19.1511116027832  1.399999976158142 -15.80278301239014 19.37194061279297  1.299999237060547 -15.66817760467529 19.48097038269043  0.5180871486663818 -15.06127834320068 19.95389366149902  1.199989199638367 -15.5328197479248 19.58906555175781  0.6931427717208862 -15.12548828125 19.90526580810547  1.096207857131958 -15.41396808624268 19.68272399902344  0.8558526635169983 -15.19903945922852 19.84916114807129  0.9908539652824402 -15.29789447784424 19.77307319641113  2.428628112960581e-15 -14.66250801086426 20.24869537353516  0.1726975440979004 -14.74274826049805 20.19037818908691  0.3453927040100098 -14.82274341583252 20.13172340393066  0.5180853009223938 -14.90250587463379 20.07275009155273  1.700000047683716 -15.93661880493164 19.26198768615723  1.799999952316284 -16.0696907043457 19.1511116027832  1.599997997283936 -15.80277156829834 19.3719482421875  1.499987244606018 -15.66816329956055 19.48098182678223  1.399976849555969 -15.53280067443848 19.58908081054688  0.6907762885093689 -14.98203182220459 20.01346397399902  1.289968967437744 -15.40145874023438 19.69251251220703  0.8728964328765869 -15.05702209472656 19.95710563659668  1.188026070594788 -15.27521991729736 19.79059410095215  1.075871825218201 -15.14432430267334 19.89093780517578  2.418763779015094e-15 -14.50140953063965 20.3643798828125  0.1726993322372437 -14.58210849761963 20.30670166015625  0.3453958630561829 -14.66256809234619 20.24868202209473  0.5180881023406982 -14.74279594421387 20.19034385681152  0.6907774209976196 -14.82279300689697 20.13168716430664  1.899999976158142 -15.93661308288574 19.26199340820312  2 -16.0696907043457 19.1511116027832  1.799993276596069 -15.80275821685791 19.3719596862793  1.699980497360229 -15.66814231872559 19.48099899291992  1.599960446357727 -15.53277206420898 19.58910369873047  1.499936580657959 -15.3966588973999 19.69626617431641  0.8665581941604614 -14.89744472503662 20.07650756835938  1.390319466590881 -15.26257705688477 19.80034637451172  1.039916753768921 -14.97483348846436 20.01885032653809  1.290737390518188 -15.13190937042236 19.9003849029541  1.198761701583862 -15.02156925201416 19.98380470275879  2.408843540895088e-15 -14.33939838409424 20.47878456115723  0.1726994961500168 -14.42055130004883 20.42174530029297  0.3453985154628754 -14.50146579742432 20.3643684387207  2.099999904632568 -15.93661308288574 19.26199340820312  2.200000047683716 -16.0696907043457 19.1511116027832  0.5180953145027161 -14.58215522766113 20.30666732788086  0.6907860636711121 -14.66261863708496 20.24864387512207  0.8634713292121887 -14.7428503036499 20.19030380249023  2 -15.80275249481201 19.3719654083252  1.899989485740662 -15.66811943054199 19.48101806640625  1.799960255622864 -15.53273677825928 19.58913230895996  1.699921369552612 -15.39661312103271 19.69630241394043  1.599878549575806 -15.25975894927979 19.80251884460449  1.042681694030762 -14.81926441192627 20.1342830657959  1.49246609210968 -15.124192237854 19.90625  1.208345055580139 -14.89329528808594 20.07958602905273  1.382897019386292 -14.97975635528564 20.01516723632812  2.398868033875274e-15 -14.17648601531982 20.59189987182617  0.1726995855569839 -14.25808620452881 20.5355052947998  0.3453991413116455 -14.33945274353027 20.4787712097168  0.5180981159210205 -14.42059516906738 20.42171478271484  2.388837893230362e-15 -14.01268196105957 20.70372009277344  0.1726996153593063 -14.09472465515137 20.64797210693359  2.299999952316284 -15.93661308288574 19.26199340820312  2.400000095367432 -16.0696907043457 19.1511116027832  2.200000047683716 -15.80275249481201 19.3719654083252  0.6907957196235657 -14.50151348114014 20.36433410644531  0.8634870648384094 -14.58220958709717 20.3066291809082  1.03617000579834 -14.66267871856689 20.24860191345215  2.099999904632568 -15.66811656951904 19.48101997375488  1.999991893768311 -15.53271579742432 19.58914947509766  1.89995288848877 -15.39656734466553 19.69633674621582  1.79988706111908 -15.25969219207764 19.80257034301758  1.691527366638184 -15.12541389465332 19.90532302856445  1.212026119232178 -14.73142623901367 20.19864082336426  1.592500567436218 -14.9947681427002 20.0039234161377  1.389896392822266 -14.80319690704346 20.1461009979248  1.535835266113281 -14.87347793579102 20.09426879882812  0.3453995287418365 -14.17653751373291 20.59188652038574  0.5180991888046265 -14.25812911987305 20.53547477722168  0.6907981634140015 -14.33949661254883 20.47874069213867  2.378753754235063e-15 -13.84799575805664 20.81423950195312  0.1726996004581451 -13.93047523498535 20.75914001464844  0.3453996777534485 -14.01272964477539 20.70370483398438  2.5 -15.93661308288574 19.26199340820312  2.599999904632568 -16.0696907043457 19.1511116027832  2.400000095367432 -15.80275249481201 19.3719654083252  2.299999952316284 -15.66811656951904 19.48101997375488  0.8634962439537048 -14.42064189910889 20.42168235778809  1.036190032958984 -14.50156784057617 20.36429595947266  1.208874583244324 -14.58227443695068 20.30658149719238  2.200000047683716 -15.53271675109863 19.58914756774902  2.099997282028198 -15.39655780792236 19.69634437561035  1.999964237213135 -15.25965213775635 19.8026008605957  1.89988112449646 -15.1220235824585 19.90789794921875  1.790712237358093 -14.98651123046875 20.01010894775391  1.394748568534851 -14.66061210632324 20.25009727478027  1.699829816818237 -14.86767292022705 20.09856414794922  1.582860231399536 -14.73611259460449 20.19522094726562  0.5180997252464294 -14.09476566314697 20.6479434967041  0.6907997727394104 -14.17657947540283 20.59185791015625  0.8634991645812988 -14.25817203521729 20.53544616699219  2.368616252164087e-15 -13.68243885040283 20.92344665527344  0.172699511051178 -13.76534938812256 20.86899948120117  0.345399409532547 -13.84804058074951 20.8142204284668  0.5180996060371399 -13.93051433563232 20.75911331176758  2.700000047683716 -15.93661308288574 19.26199340820312  2.799999952316284 -16.0696907043457 19.1511116027832  2.599999904632568 -15.80275249481201 19.3719654083252  2.5 -15.66811656951904 19.48101997375488  2.400000095367432 -15.53271675109863 19.58914756774902  1.036197543144226 -14.33954334259033 20.47870826721191  1.208893895149231 -14.42069530487061 20.42164421081543  1.388428807258606 -14.49562740325928 20.3685245513916  2.299999952316284 -15.39656066894531 19.69634246826172  2.20000147819519 -15.2596549987793 19.80259895324707  2.099986553192139 -15.12200450897217 19.90791320800781  1.999913215637207 -14.98362731933594 20.01226806640625  1.897578477859497 -14.84960556030273 20.11191749572754  1.558596134185791 -14.56730175018311 20.31732559204102  1.800715446472168 -14.72523021697998 20.2
[...]
<PointData  Vectors="t"> 
<DataArray  type="Float64"  Name="t"  NumberOfComponents="3" format="ascii">3.9323695772008421e-04 -4.0550440266363764e-02 9.0273160552516094e-02  5.6004866756688789e-04 2.6336686311342564e-02 9.7879282207492396e-03  -5.1581182111710240e-05 -5.0353967142492545e-02 1.0167008909805203e-01  -1.4172319164257664e-05 -4.1620807092446421e-02 9.1647968966178286e-02  8.3056457208807266e-04 -4.5192384230783408e-02 9.5884504008145494e-02  1.1236103737394655e-03 -2.9381499205135601e-02 7.6561424908641332e-02  -4.8000926139168744e-06 -3.8813876081684046e-02 8.8645551788387428e-02  4.8263808337371150e-04 -4.2180177888195225e-02 9.2625293758032357e-02  -1.6999849408127003e-05 -3.7079856302789163e-02 8.6871923788932826e-02  4.3480658398067993e-04 -3.7650099342048757e-02 8.7433964304995351e-02  1.3754063387376742e-03 -3.9417922434430611e-02 8.8927524731099591e-02  1.6450891789421412e-03 -1.3589173944047897e-01 2.0432955169080660e-01  1.0983919061008998e-03 -3.8161717438103190e-02 8.7703748626677194e-02  8.1307905941423880e-04 -3.9914697585875278e-02 9.0145269452635471e-02  1.8884388895078971e-03 -3.5620873619180669e-02 8.4278675002207051e-02  2.1397591611148673e-03 4.7589970602008441e-01 -5.2999425642872799e-01  -2.5021940338366733e-05 -3.7568897920040444e-02 8.7908636552803954e-02  4.3393966848612371e-04 -3.9530108932119175e-02 9.0200031166187036e-02  8.5115633304317588e-04 -4.3439147000631659e-02 9.4937626424411378e-02  1.6214356123648479e-03 -3.7205226290480162e-02 8.6549111445260327e-02  1.3496338829990474e-03 -4.0454810980000394e-02 9.0900160322604964e-02  2.3938697682034712e-03 -3.5040842563587062e-02 8.3496292110701351e-02  2.6430663764319068e-03 -1.8470386004678793e-01 2.6276491347352987e-01  -1.7975047564868907e-05 -3.7732135450644452e-02 8.8539846811530071e-02  4.4186648088571944e-04 -3.8814034319828730e-02 8.9710431684360922e-02  2.1364702628794670e-03 -3.6515980118854423e-02 8.5649403924632661e-02  8.8722849038594029e-04 -3.7939751002268131e-02 8.8381520475949188e-02  1.2265537675080051e-03 -3.3924933958392335e-02 8.3086109645766390e-02  1.8867253598512353e-03 -3.7915897707743999e-02 8.7719430663198775e-02  1.6155901069325436e-03 -3.8538613279219383e-02 8.8860461204836289e-02  2.8998905739875311e-03 -3.5046192952029140e-02 8.3401156029529036e-02  3.1482847500054457e-03 1.6199749930358969e+00 -1.9033024335679223e+00  -1.8711270990900836e-05 -3.7069139906973067e-02 8.8090067162709562e-02  4.4402391308401225e-04 -3.7314868308061522e-02 8.8202204083002972e-02  2.6519316108954086e-03 -3.5544246475445490e-02 8.4373329844546291e-02  9.3545660926750741e-04 -3.8027753125657981e-02 8.8906058602385915e-02  2.4034879807415324e-03 -3.7591094011547074e-02 8.7260946540765466e-02  1.3938522349385371e-03 -3.7076982208506117e-02 8.7397017466827015e-02  2.1520257452488736e-03 -3.8950527445162648e-02 8.9329893099489799e-02  1.9203827849719199e-03 -3.8265879051276153e-02 8.8816687591796520e-02  -1.9849054401506099e-05 -3.6921551920129178e-02 8.8314493278873057e-02  4.4397088863281010e-04 -3.6669846978322325e-02 8.7764235412488206e-02  3.4068759949318207e-03 -3.5262354675470058e-02 8.3541561238826070e-02  3.6552687908914415e-03 -4.4719884832999828e+00 5.4080817987944609e+00  3.1588487650158256e-03 -3.5254114728588963e-02 8.3905361453523647e-02  9.0172821657034041e-04 -3.5894447387851615e-02 8.6521127423847127e-02  2.9108451162287419e-03 -3.6421138497626987e-02 8.5726772411321969e-02  1.3511079108256142e-03 -3.3306736309057068e-02 8.2901955523030021e-02  2.6576823446392665e-03 -3.9235598924886358e-02 8.9616234092330965e-02  1.8079763459262137e-03 -3.9483384406878028e-02 9.0777415680426798e-02  2.4042402962303334e-03 -4.2673598344791487e-02 9.4376011814606989e-02  2.1921736409919669e-03 -4.1186699536390432e-02 9.2795795114235788e-02  -2.0868050479829586e-05 -3.7016262013382872e-02 8.8867214923543297e-02  4.4474768180825840e-04 -3.6703879615926818e-02 8.8224717966251170e-02  9.0101915198179843e-04 -3.6080814911275468e-02 8.7161152818496027e-02  3.9153290769538846e-03 -3.5447493493685422e-02 8.3631210168548673e-02  4.1762212514860567e-03 1.9946520776137604e+01 -2.3898859822416323e+01  3.6687368228851647e-03 -3.5193377886420490e-02 8.3702271937769884e-02  3.4225894523003879e-03 -3.5473663662939990e-02 8.4429292177310183e-02  1.3412982513207137e-03 -3.6261355295462032e-02 8.7164235113522490e-02  3.1755519715701251e-03 -3.7560087449776347e-02 8.7433663920681082e-02  1.8011112362861053e-03 -4.0786209737516350e-02 9.2912318213133449e-02  2.9082513696857826e-03 -3.9712544395915893e-02 9.0536765707165193e-02  2.2403555764745078e-03 -4.2883154369357288e-02 9.5363020917372476e-02  2.6293557800857125e-03 -4.0191426996662456e-02 9.1528727372091223e-02  -2.1012302010565673e-05 -3.6835656163358599e-02 8.9051094582523790e-02  4.4549619624828350e-04 -3.6608885214015521e-02 8.8516522395869157e-02  9.0275736664205170e-04 -3.6043935308789639e-02 8.7514316207980267e-02  1.3507987177971714e-03 -3.6096105814802576e-02 8.7344568031944236e-02  4.4208744226279803e-03 -3.4821336187705471e-02 8.2720747331108513e-02  4.6797657413003516e-03 7.1965574113326092e+00 -8.5966292676628893e+00  4.1769982357352693e-03 -3.4924916116511343e-02 8.3231702657079493e-02  3.9329141637218451e-03 -3.4953293071308560e-02 8.3650705138078860e-02  3.6904730705480250e-03 -3.5913261095002473e-02 8.5235685399716793e-02  1.8029094494168678e-03 -3.9081725516553860e-02 9.1095013655136461e-02  3.4124486924305211e-03 -3.6776836402013464e-02 8.6732345948776060e-02  2.2963947507463364e-03 -3.9611156598747095e-02 9.1526956224435310e-02  3.1346012470275875e-03 -3.6945763048177246e-02 8.7315617845665716e-02  2.8277796361704252e-03 -3.8101091963101193e-02 8.9188139350722256e-02  -2.0156427835137399e-05 -3.6653674511834974e-02 8.9233985717075498e-02  4.4614338768245772e-04 -3.6378916065162289e-02 8.8625203390148941e-02  9.0374699929621617e-04 -3.5821465124827062e-02 8.7618311023089729e-02  1.3531588846561332e-03 -3.5511360347252455e-02 8.6949667973196476e-02  1.7996519689651054e-03 -3.5750238816113958e-02 8.7023947934765561e-02  4.9209408514812800e-03 -3.4164535070125859e-02 8.1761357456948472e-02  5.1621238415019161e-03 -3.4598161222482298e+00 4.1927589450875722e+00  4.6798601320398687e-03 -3.4469667895403226e-02 8.2519778622636028e-02  4.4379894637280835e-03 -3.4456776295552785e-02 8.2890080106635899e-02  4.1956177061397825e-03 -3.4533692283908596e-02 8.3370716462362507e-02  3.9515930504871915e-03 -3.5049230292088028e-02 8.4411980100840084e-02  2.2625060805336016e-03 -3.6991996819190590e-02 8.8446599636733958e-02  3.6623782482162089e-03 -3.6122958349108537e-02 8.6189231899577515e-02  2.7198757966162852e-03 -3.4447157999240231e-02 8.4750798295494284e-02  3.4032288446066727e-03 -3.5630035570581288e-02 8.5896526700991599e-02  3.1259850709734792e-03 -3.6174755878715388e-02 8.6894255287841504e-02  -1.8340587439251801e-05 -3.6340043298183751e-02 8.9228866445466043e-02  4.4681517353541519e-04 -3.6211897988543129e-02 8.8820942093375641e-02  9.0411034516585408e-04 -3.5625914376881861e-02 8.7759133228954275e-02  5.4179989504120887e-03 -3.4238703242261699e-02 8.1683818525499871e-02  5.6579658796137916e-03 1.3104446394077858e+00 -1.5325603706958253e+00  1.3537907126359126e-03 -3.5407396081077860e-02 8.7209584360864276e-02  1.8020851102794320e-03 -3.5491828889414233e-02 8.7072568809904882e-02  2.2504172444804977e-03 -3.6641758810052057e-02 8.8392206660751052e-02  5.1788814420147215e-03 -3.4178544625545405e-02 8.1999757130666845e-02  4.9390721885200200e-03 -3.4186155112114293e-02 8.2398700475478898e-02  4.6976834271927554e-03 -3.4195691122961301e-02 8.2800394002643038e-02  4.4537660864752953e-03 -3.4304742147350693e-02 8.3328102273822480e-02  4.2036699227782351e-03 -3.5056775821634308e-02 8.4685831670303274e-02  2.7272853334255292e-03 -3.7470289038287356e-02 8.9235234172475017e-02  3.9138147914012768e-03 -3.6378001024301367e-02 8.6807083883082142e-02  3.1638287585741792e-03 -3.9571233840903004e-02 9.1829778335977413e-02  3.6245694948728604e-03 -3.6497435626873805e-02 8.7372205533086417e-02  -1.6308973632060734e-05 -3.6045661608279538e-02 8.9246940810848385e-02  4.4752014451883654e-04 -3.5897567763950027e-02 8.8805578176902530e-02  9.0422687424838880e-04 -3.5468041843438054e-02 8.7952952341412594e-02  1.3539676582350201e-03 -3.5189031719032940e-02 8.7311524783766400e-02  -1.3405077239407156e-05 -3.5697213339280422e-02 8.9180527032968041e-02  4.4829885914686343e-04 -3.5598330726557909e-02 8.8807516081604518e-02  5.9138064086620683e-03 -3.4146708200353919e-02 8.1395087388052539e-02  6.1524607922237183e-03 -5.0942029220823493e-01 6.5141398479084112e-01  5.6757129272462809e-03 -3.4061199171585010e-02 8.1683985024915196e-02  1.8030162669037187e-03 -3.5185027389467972e-02 8.7050746830817094e-02  2.2513390783185211e-03 -3.5280257300295402e-02 8.6918375860775748e-02  2.6969779256739729e-03 -3.5898247690628729e-02 8.7500278047164551e-02  5.4377176610577978e-03 -3.4051077165046927e-02 8.2064939023665281e-02  5.1983438480507956e-03 -3.4029163473412248e-02 8.2431750080970576e-02  4.9569768639263073e-03 -3.4245245535500596e-02 8.3101507844831779e-02  4.7136309562164505e-03 -3.5070182586816503e-02 8.4561907337209793e-02  4.4440449648257708e-03 -3.6022954275176461e-02 8.6215803548252160e-02  3.1534326558548269e-03 -3.7169241048552605e-02 8.8981687559280681e-02  4.1845101994918612e-03 -3.8357980930746077e-02 8.9693840731044569e-02  3.6277899435435252e-03 -3.6020797736946664e-02 8.7123083733621695e-02  4.0070076613523244e-03 -3.6582992910245284e-02 8.7690743628931006e-02  9.0425605118166100e-04 -3.5178678241476989e-02 8.7957573109469570e-02  1.3540826950521044e-03 -3.5067238655057190e-02 8.7550383319749681e-02  1.8035658846255326e-03 -3.5073993102804756e-02 8.7303652659137018e-02  -9.2990778908642130e-06 -3.5190406343868594e-02 8.8869969715721628e-02  4.4933200414871028e-04 -3.5197158627596842e-02 8.8652827403960507e-02  9.0403700111555752e-04 -3.4986078735102726e-02 8.8100829348873255e-02  6.4076958345503183e-03 -3.4007907211785662e-02 8.1038927891060486e-02  6.6448093353064248e-03 2.4235259491495759e-01 -2.5103883724070186e-01  6.1709541972134784e-03 -3.3947943170619305e-02 8.1362902786542735e-02  5.9342336849103486e-03 -3.3922191219178270e-02 8.1728534866314900e-02  2.2523543733850072e-03 -3.5070514380917427e-02 8.7031582883322897e-02  2.6999605127904242e-03 -3.5285408656139029e-02 8.7058850521408646e-02  3.1486395932261708e-03 -3.8035279106534391e-02 9.0619908654675105e-02  5.6970026531653426e-03 -3.3931995852001899e-02 8.2138769078745677e-02  5.4582317772226300e-03 -3.4044635838939588e-02 8.2681142906706709e-02  5.2181892667255382e-03 -3.4157054018190691e-02 8.3225609301559839e-02  4.9788069396254882e-03 -3.4708299098481651e-02 8.4347725137395982e-02  4.7068427344664956e-03 -3.6889689827059154e-02 8.7653114764754514e-02  3.6506114647345774e-03 -3.8544884302451572e-02 9.1017932081706374e-02  4.4511230376099260e-03 -3.9830957792148375e-02 9.1990820959187369e-02  4.1411276944326378e-03 -3.8617808312247384e-02 9.0797902957106894e-02  1.3541465681192234e-03 -3.4870342968451574e-02 8.7682884856053647e-02  1.8041516657219757e-03 -3.4871245061508925e-02 8.7426811433295185e-02  2.2531082820387485e-03 -3.4855217001917974e-02 8.7135805198816613e-02  -5.6486387421153698e-06 -3.4761383908455755e-02 8.8662876730465690e-02  4.5026699044043757e-04 -3.4867913748702788e-02 8.8597548475341112e-02  9.0353785446099886e-04 -3.4690359431453099e-02 8.8089746897819871e-02  1.3540275376573785e-03 -3.4666352570140724e-02 8.7804479076804373e-02  6.8993263067567206e-03 -3.3849582975129064e-02 8.0649133109362364e-02  7.1348280012748311e-03 -4.6542477993368181e-01 5.9821507632042759e-01  6.6641863803227628e-03 -3.3804631644052320e-02 8.0994889417942140e-02  6.4290341874597822e-03 -3.3794084986439606e-02 8.1382898398480716e-02  6.1934351674506893e-03 -3.3809478798975896e-02 8.1803862579509695e-02  2.7005419539482432e-03 -3.4822345907448364e-02 8.6810623143161444e-02  3.1432553247339339e-03 -3.5116966709387437e-02 8.6945386928072424e-02  3.6152261610571551e-03 -3.5996054507393016e-02 8.7892229914326950e-02  5.9569353205343369e-03 -3.3820037049915090e-02 8.2219748527382008e-02  5.7191524394324235e-03 -3.3854604937919815e-02 8.2667178538941927e-02  5.4800780451943433e-03 -3.3782335900860570e-02 8.2975417993454162e-02  5.2430733190461775e-03 -3.4451565817044040e-02 8.4263642499704944e-02  4.9826055214846308e-03 -3.6474440296609137e-02 8.7397963565564007e-02  4.0615073871901981e-03 -3.5076666312871964e-02 8.6318457176503605e-02  4.7279540966394936e-03 -3.5395535730580643e-02 8.6281965237247182e-02  4.4509994847587763e-03 -3.6776295970674930e-02 8.8497942039414607e-02  1.8045929690543106e-03 -3.4760868853030126e-02 8.7685236901777916e-02  2.2539223641439244e-03 -3.4787734235608193e-02 8.7454907313428157e-02  2.7018532665838472e-03 -3.4740105321344077e-02 8.7105736947157938e-02  -3.5627957081807663e-06 -3.4435802954714913e-02 8.8604977292842307e-02  4.5060727541404872e-04 -3.4508893251023548e-02 8.8489164936457712e-02  9.0274340020157415e-04 -3.4488338781030102e-02 8.8216425801758910e-02  1.3535247483504830e-03 -3.4508469899176324e-02 8.7995789315833614e-02  1.8043944321342984e-03 -3.4547943662559595e-02 8.7793654018109957e-02  7.3885475758860807e-03 -3.3678795767828409e-02 8.0234976397806718e-02  7.6223840541434331e-03 2.0350342568232587e+00 -2.4029865836100797e+00  7.1551155480447911e-03 -3.3642280605787750e-02 8.0594050273990442e-02  6.9216724066452923e-03 -3.3642581374924679e-02 8.0998616693289893e-02  6.6878163524834661e-03 -3.3663193023413807e-02 8.1429388414928888e-02  6.4531301519727838e-03 -3.3641196933518490e-02 8.1807240367487724e-02  3.1475168041047536e-03 -3.4840048532107988e-02 8.6961589574553105e-02  3.5954441143768402e-03 -3.6299883035576339e-02 8.8757184618179955e-02  4.0678636050372518e-03 -3.7731021732171834e-02 9.0472405959580351e-02  6.2172432871451513e-03 -3.3657623077657274e-02 8.2234899014426030e-02  5.9798266700352397e-03 -3.3576150605527690e-02 8.2535311904333677e-02  5.7402130708288307e-03 -3.3715202878485097e-02 8.3125917409732991e-02  5.4937951538460072e-03 -3.4244611804586329e-02 8.4247534416483166e-02  5.2248008852937931e-03 -3.5743509146858893e-02 8.6698976110186038e-02  4.4844176762071641e-03 -3.8716549911777677e-02 9.1603703923934021e-02  4.9417689907099984e-03 -3.6046145016282977e-02 8.7520526008982844e-02  2.2543826809231404e-03 -3.4592736359902690e-02 8.7589012411166886e-02  2.7030187356224494e-03 -3.4566134819441707e-02 8.7268820111415638e-02  3.1498751252378048e-03 -3.4609445890091774e-02 8.7042206348814016e-02  -2.1244912370875261e-06 -3.4051023195396379e-02 8.8448031733487406e-02  4.5039706618568216e-04 -3.4137481975315395e-02 8.8354190079491357e-02  9.0183205289965827e-04 -3.4192421984826915e-02 8.8197730287893128e-02  1.3526967975932003e-03 -3.4221771961342386e-02 8.7990907694661696e-02  1.8036805404157222e-03 -3.4326677803119335e-02 8.7889229755089893e-02  2.2541537758093066e-03 -3.4326561546372251e-02 8.7616146075635809e-02  7.8752157791303224e-03 -3.3495765757366076e-02 7.9797379655931880e-02  8.1073332744819003e-03 -8.0990655564651064e+00 9.7594908422657980e+00  7.6435675171391236e-03 -3.3466037047574858e-02 8.0167345610999835e-02  7.4119337878128253e-03 -3.3475575504213394e-02 8.0586070759019690e-02  7.1798916219342531e-03 -3.3506040123241008e-02 8.1032062663056154e-02  6.9470247522781057e-03 -3.3491609960116832e-02 8.1422564413189402e-02  6.7129033033058042e-03 -3.3526071141003082e-02 8.1876870959173884e-02  3.5959712053402846e-03 -3.4506580244584584e-02 8.6591687246626858e-02  4.0389427837335809e-03 -3.5063289182407795e-02 8.7087423656026314e-02  4.4739306956783085e-03 -3.6777269021824481e-02 8.9282520746404040e-02  6.4771611827509181e-03 -3.3485485763243575e-02 8.2234885952680747e-02  6.2396475201210843e-03 -3.3621325496628510e-02 8.2827576800798094e-02  6.0009828028174134e-03 -3.4250420651896263e-02 8.4089980337977335e-02  5.7390350251868196e-03 -3.5700718867844997e-02 8.6496373892497647e-02  5.4855915443711581e-03 -3.8690790240787518e-02 9.1042124736700480e-02  4.9535694674358241e-03 -3.6197010014509055e-02 8.8143420855834445e-02  5.3131193832524782e-03 -3.6729787260109031e-02 8.8686065510103329e-02  2.7033727936675782e-03 -3.4412203448424696e-02 8.7463219360449235e-02  3.1509193576760809e-03 -3.4348833070698977e-02 8.7077091891094888e-02  3.5970204627987809e-03 -3.4326850739402268e-02 8.6744356117512300e-02  -1.8600948710931636e-06 -3.3733649965060668e-02 8.8391120716627636e-02  4.4993198099964435e-04 -3.3847595153607746e-02 8.8341848761862019e-02  -3.8514558128491324e-06 -3.3486218007061586e-02 8.8444888261346666e-02  4.4894363390415626e-04 -3.3583977970167100e-02 8.8368315498347005e-02  -7.3303320708646474e-06 -3.3356398593571840e-02 8.8696280244011869e-02  4.4702136145873878e-04 -3.3279103744201739e-02 8.8326375335038135e-02  9.0053860391172671e-04 -3.3876715097555216e-02 8.8144113349774247e-02  1.3513062216926974e-03 -3.4036101631802672e-02 8.8140384033432662e-02  1.8020583360023052e-03 -3.4138721214510274e-02 8.8035094699350336e-02  2.2527554590526682e-03 -3.4232872625977823e-02 8.7905384525200775e-02  2.7023663395436825e-03 -3.4207145185319615e-02 8.7581173886545988e-02  -1.0088289908137409e-05 -3.3061774031062655e-02 8.8675430709505579e-02  4.4445158503389216e-04 -3.3021206709470174e-02 8.8361659695276817e-02  8.3591821451419503e-03 -3.3299550792086650e-02 7.9335804211403252e-02  8.5895231686611562e-03 2.3453322862328019e+01 -2.8109139562530085e+01  8.1293846728546278e-03 -3.3276094608468559e-02 7.9715642087916372e-02  7.8996501484281303e-03 -3.3293506723657454e-02 8.0146431253114200e-02  7.6695352365200118e-03 -3.3333791998405991e-02 8.0607178776439553e-02  7.4386243965973431e-03 -3.3330530132736583e-02 8.1014452722245722e-02  7.2065246567745954e-03 -3.3378767875324324e-02 8.1489269123417807e-02  6.9728980155652990e-03 -3.3358163780625803e-02 8.1876398741471235e-02  4.0394544697048285e-03 -3.4215407358919918e-02 8.6270884568285480e-02  4.4635361971903792e-03 -3.7979039103417003e-02 9.1465686231445950e-02  4.9701137671724904e-03 -3.8786669647409622e-02 9.2305449100525711e-02  6.7375828310690805e-03 -3.3465757635723917e-02 8.2434701916232894e-02  6.5011695407765331e-03 -3.3460801591703143e-02 8.2845011880957151e-02  6.2659553308404082e-03 -3.4225548247350378e-02 8.4310100724430820e-02  6.0012582478630979e-03 -3.6476854629153836e-02 8.7860398415457008e-02  5.7483178084762453e-03 -3.9190702713753918e-02 9.2054668454266103e-02  5.4535146641086418e-03 -3.8126451073215037e-02 9.1007677906143683e-02  3.1507205860540938e-03 -3.4263678993446484e-02 8.7374348460907886e-02  3.5978136193990074e-03 -3.4151364376492632e-02 8.6904413043780174e-02  4.0419354398493878e-03 -3.3956519087415246e-02 8.6305206941454007e-02  8.9865744415411255e-04 -3.3610102300988751e-02 8.8164724611679873e-02  8.9646412260432852e-04 -3.3287193033815353e-02 8.8090791654303433e-02  8.9391753803039361e-04 -3.2945214450689070e-02 8.7981767959332866e-02  1.3489517915154941e-03 -3.3711709649881828e-02 8.8070339885742532e-02  1.7993566568833615e-03 -3.3831776121646305e-02 8.7993960736495375e-02  2.2502295916263944e-03 -3.3911369662439496e-02 8.7842595477916924e-02  2.7000744635978647e-03 -3.3972805721302429e-02 8.7653437716205679e-02  3.1491497409991895e-03 -3.3983518878415435e-02 8.7376219092810237e-02  -1.2944350408701721e-05 -3.2829510628265689e-02 8.8760005679155068e-02  4.4151065412372295e-04 -3.2794913477848249e-02 8.8451181080518373e-02  8.9052890257338032e-04 -3.2599472484636960e-02 8.7860971501384777e-02  -1.5766982558318749e-05 -3.2415138335772892e-02 8.8527654060398614e-02  4.3831057729754698e-04 -3.2423373894571443e-02 8.8289094235266152e-02  8.8402894611159660e-03 -3.3089437306190898e-02 7.8849944872000713e-02  9.0687962390739070e-03 -6.4607402533213563e+00 7.7927493300940025e+00  8.6124048574522521e-03 -3.3071666115653611e-02 7.9238564140892961e-02  8.3846451388029965e-03 -3.3095380714392934e-02 7.9679078614576918e