<?xml version="1.0"?>
<VTKFile type="UnstructuredGrid"  version="0.1"  >
<UnstructuredGrid>
<Piece  NumberOfPoints="13155" NumberOfCells="25882">
<Points>
<DataArray  type="Float64"  NumberOfComponents="3"  format="ascii">0.1454902738332748 -15.97121238708496 19.23331451416016  0.2000000029802322 -16.0696907043457 19.1511116027832  2.514793174794735e-15 -16.0696907043457 19.1511116027832  2.505459083474229e-15 -15.9172534942627 19.27799224853516  0.3033701479434967 -15.95847129821777 19.24388694763184  0.4000000059604645 -16.0696907043457 19.1511116027832  2.496063794023284e-15 -15.76381397247314 19.40365791320801  0.1811874359846115 -15.83084297180176 19.3490161895752  2.486607518200137e-15 -15.60938262939453 19.52810287475586  0.1678137630224228 -15.67213726043701 19.47778511047363  0.4992842972278595 -15.94091510772705 19.25843238830566  0.6000000238418579 -16.0696907043457 19.1511116027832  0.401216059923172 -15.82449054718018 19.35421180725098  0.3096794784069061 -15.71394634246826 19.44407081604004  0.699999988079071 -15.93662071228027 19.26198577880859  0.800000011920929 -16.0696907043457 19.1511116027832  2.477091103037735e-15 -15.4539680480957 19.65131759643555  0.1693062037229538 -15.5245943069458 19.5955867767334  0.3231367170810699 -15.59501552581787 19.53958702087402  0.6036863923072815 -15.80538177490234 19.36981964111328  0.5033078789710999 -15.67348575592041 19.47669982910156  0.8999999761581421 -15.93662071228027 19.26198577880859  1 -16.0696907043457 19.1511116027832  2.467515183810789e-15 -15.29758071899414 19.77329635620117  0.1726995408535004 -15.37592792510986 19.71245384216309  0.800000011920929 -15.80278301239014 19.37193870544434  0.3396665155887604 -15.44734859466553 19.65653610229492  0.4591535627841949 -15.53036785125732 19.59100914001465  0.7100203633308411 -15.67227268218994 19.47767639160156  0.6189196705818176 -15.53988075256348 19.58346557617188  1.100000023841858 -15.93662071228027 19.26198577880859  1.200000047683716 -16.0696907043457 19.1511116027832  2.457880184035771e-15 -15.14023113250732 19.89402961730957  0.1726992577314377 -15.21905994415283 19.83381462097168  1 -15.80278301239014 19.37193870544434  0.3542799353599548 -15.29806804656982 19.77293968200684  0.905468225479126 -15.67239189147949 19.47758102416992  0.5330990552902222 -15.39274215698242 19.69932746887207  0.8138397932052612 -15.54378604888916 19.58036613464355  0.736111581325531 -15.41718101501465 19.68020629882812  2.44818695074563e-15 -14.98192882537842 20.01351356506348  0.1726987510919571 -15.06123447418213 19.95392799377441  1.299999952316284 -15.93662071228027 19.26198577880859  1.399999976158142 -16.0696907043457 19.1511116027832  1.200000047683716 -15.80278301239014 19.37193870544434  0.3453958928585052 -15.14028930664062 19.89401054382324  1.100000023841858 -15.66818714141846 19.4809627532959  0.5204423069953918 -15.21828937530518 19.83440589904785  1.005419254302979 -15.5417308807373 19.58199691772461  0.702947199344635 -15.27706241607666 19.7891731262207  0.9108297228813171 -15.41807556152344 19.67950630187988  0.8409191370010376 -15.32400226593018 19.75284767150879  2.438436119215075e-15 -14.8226842880249 20.13173675537109  0.1726979464292526 -14.9024600982666 20.07278442382812  0.3453925251960754 -14.98198795318604 20.01349639892578  1.5 -15.93662071228027 19.26198577880859  1.600000023841858 -16.0696907043457 19.1511116027832  1.399999976158142 -15.80278301239014 19.37194061279297  1.299999237060547 -15.66817760467529 19.48097038269043  0.5180871486663818 -15.06127834320068 19.95389366149902  1.199989199638367 -15.5328197479248 19.58906555175781  0.6931427717208862 -15.12548828125 19.90526580810547  1.096207857131958 -15.41396808624268 19.68272399902344  0.8558526635169983 -15.19903945922852 19.84916114807129  0.9908539652824402 -15.29789447784424 19.77307319641113  2.428628112960581e-15 -14.66250801086426 20.24869537353516  0.1726975440979004 -14.74274826049805 20.19037818908691  0.3453927040100098 -14.82274341583252 20.13172340393066  0.5180853009223938 -14.90250587463379 20.07275009155273  1.700000047683716 -15.93661880493164 19.26198768615723  1.799999952316284 -16.0696907043457 19.1511116027832  1.599997997283936 -15.80277156829834 19.3719482421875  1.499987244606018 -15.66816329956055 19.48098182678223  1.399976849555969 -15.53280067443848 19.58908081054688  0.6907762885093689 -14.98203182220459 20.01346397399902  1.289968967437744 -15.40145874023438 19.69251251220703  0.8728964328765869 -15.05702209472656 19.95710563659668  1.188026070594788 -15.27521991729736 19.79059410095215  1.075871825218201 -15.14432430267334 19.89093780517578  2.418763779015094e-15 -14.50140953063965 20.3643798828125  0.1726993322372437 -14.58210849761963 20.30670166015625  0.3453958630561829 -14.66256809234619 20.24868202209473  0.5180881023406982 -14.74279594421387 20.19034385681152  0.6907774209976196 -14.82279300689697 20.13168716430664  1.899999976158142 -15.93661308288574 19.26199340820312  2 -16.0696907043457 19.1511116027832  1.799993276596069 -15.80275821685791 19.3719596862793  1.699980497360229 -15.66814231872559 19.48099899291992  1.599960446357727 -15.53277206420898 19.58910369873047  1.499936580657959 -15.3966588973999 19.69626617431641  0.8665581941604614 -14.89744472503662 20.07650756835938  1.390319466590881 -15.26257705688477 19.80034637451172  1.039916753768921 -14.97483348846436 20.01885032653809  1.290737390518188 -15.13190937042236 19.9003849029541  1.198761701583862 -15.02156925201416 19.98380470275879  2.408843540895088e-15 -14.33939838409424 20.47878456115723  0.1726994961500168 -14.42055130004883 20.42174530029297  0.3453985154628754 -14.50146579742432 20.3643684387207  2.099999904632568 -15.93661308288574 19.26199340820312  2.200000047683716 -16.0696907043457 19.1511116027832  0.5180953145027161 -14.58215522766113 20.30666732788086  0.6907860636711121 -14.66261863708496 20.24864387512207  0.8634713292121887 -14.7428503036499 20.19030380249023  2 -15.80275249481201 19.3719654083252  1.899989485740662 -15.66811943054199 19.48101806640625  1.799960255622864 -15.53273677825928 19.58913230895996  1.699921369552612 -15.39661312103271 19.69630241394043  1.599878549575806 -15.25975894927979 19.80251884460449  1.042681694030762 -14.81926441192627 20.1342830657959  1.49246609210968 -15.124192237854 19.90625  1.208345055580139 -14.89329528808594 20.07958602905273  1.382897019386292 -14.97975635528564 20.01516723632812  2.398868033875274e-15 -14.17648601531982 20.59189987182617  0.1726995855569839 -14.25808620452881 20.5355052947998  0.3453991413116455 -14.33945274353027 20.4787712097168  0.5180981159210205 -14.42059516906738 20.42171478271484  2.388837893230362e-15 -14.01268196105957 20.70372009277344  0.1726996153593063 -14.09472465515137 20.64797210693359  2.299999952316284 -15.93661308288574 19.26199340820312  2.400000095367432 -16.0696907043457 19.1511116027832  2.200000047683716 -15.80275249481201 19.3719654083252  0.6907957196235657 -14.50151348114014 20.36433410644531  0.8634870648384094 -14.58220958709717 20.3066291809082  1.03617000579834 -14.66267871856689 20.24860191345215  2.099999904632568 -15.66811656951904 19.48101997375488  1.999991893768311 -15.53271579742432 19.58914947509766  1.89995288848877 -15.39656734466553 19.69633674621582  1.79988706111908 -15.25969219207764 19.80257034301758  1.691527366638184 -15.12541389465332 19.90532302856445  1.212026119232178 -14.73142623901367 20.19864082336426  1.592500567436218 -14.9947681427002 20.0039234161377  1.389896392822266 -14.80319690704346 20.1461009979248  1.535835266113281 -14.87347793579102 20.09426879882812  0.3453995287418365 -14.17653751373291 20.59188652038574  0.5180991888046265 -14.25812911987305 20.53547477722168  0.6907981634140015 -14.33949661254883 20.47874069213867  2.378753754235063e-15 -13.84799575805664 20.81423950195312  0.1726996004581451 -13.93047523498535 20.75914001464844  0.3453996777534485 -14.01272964477539 20.70370483398438  2.5 -15.93661308288574 19.26199340820312  2.599999904632568 -16.0696907043457 19.1511116027832  2.400000095367432 -15.80275249481201 19.3719654083252  2.299999952316284 -15.66811656951904 19.48101997375488  0.8634962439537048 -14.42064189910889 20.42168235778809  1.036190032958984 -14.50156784057617 20.36429595947266  1.208874583244324 -14.58227443695068 20.30658149719238  2.200000047683716 -15.53271675109863 19.58914756774902  2.099997282028198 -15.39655780792236 19.69634437561035  1.999964237213135 -15.25965213775635 19.8026008605957  1.89988112449646 -15.1220235824585 19.90789794921875  1.790712237358093 -14.98651123046875 20.01010894775391  1.394748568534851 -14.66061210632324 20.25009727478027  1.699829816818237 -14.86767292022705 20.09856414794922  1.582860231399536 -14.73611259460449 20.19522094726562  0.5180997252464294 -14.09476566314697 20.6479434967041  0.6907997727394104 -14.17657947540283 20.59185791015625  0.8634991645812988 -14.25817203521729 20.53544616699219  2.368616252164087e-15 -13.68243885040283 20.92344665527344  0.172699511051178 -13.76534938812256 20.86899948120117  0.345399409532547 -13.84804058074951 20.8142204284668  0.5180996060371399 -13.93051433563232 20.75911331176758  2.700000047683716 -15.93661308288574 19.26199340820312  2.799999952316284 -16.0696907043457 19.1511116027832  2.599999904632568 -15.80275249481201 19.3719654083252  2.5 -15.66811656951904 19.48101997375488  2.400000095367432 -15.53271675109863 19.58914756774902  1.036197543144226 -14.33954334259033 20.47870826721191  1.208893895149231 -14.42069530487061 20.42164421081543  1.388428807258606 -14.49562740325928 20.3685245513916  2.299999952316284 -15.39656066894531 19.69634246826172  2.20000147819519 -15.2596549987793 19.80259895324707  2.099986553192139 -15.12200450897217 19.90791320800781  1.999913215637207 -14.98362731933594 20.01226806640625  1.897578477859497 -14.84960556030273 20.11191749572754  1.558596134185791 -14.56730175018311 20.31732559204102  1.800715446472168 -14.72523021697998 20.2
[...]
<PointData  Vectors="u"> 
<DataArray  type="Float64"  Name="u"  NumberOfComponents="3" format="ascii">-1.2599171351962925e-02 1.8687961077670158e-03 -3.4506833861903574e-03  -1.3281800399933232e-02 2.6136425156603874e-03 -4.7970553670764072e-03  -1.3283164352274427e-02 0.0000000000000000e+00 0.0000000000000000e+00  -1.2235071514833733e-02 0.0000000000000000e+00 0.0000000000000000e+00  -1.2509881100717168e-02 3.8877354549234854e-03 -7.1840317771903932e-03  -1.3277034588799235e-02 5.2304397729318686e-03 -9.5971991321632689e-03  -1.1233933521933972e-02 0.0000000000000000e+00 0.0000000000000000e+00  -1.1663696817526270e-02 2.2690756708759557e-03 -4.2265312024364950e-03  -1.0278065390648903e-02 0.0000000000000000e+00 0.0000000000000000e+00  -1.0659355807338067e-02 2.0444803315836403e-03 -3.8440841432271240e-03  -1.2385438200244082e-02 6.3794438466811378e-03 -1.1799589462872207e-02  -1.3269215770910619e-02 7.8408439625339641e-03 -1.4388461539396978e-02  -1.1618258156819725e-02 5.0229311260749669e-03 -9.3565960498135318e-03  -1.0916814180912490e-02 3.8019741970762777e-03 -7.1298080579914611e-03  -1.2348028220673114e-02 8.9336602196853198e-03 -1.6528591823748724e-02  -1.3258352624182882e-02 1.0444315344627484e-02 -1.9169802582848439e-02  -9.3664703074398340e-03 0.0000000000000000e+00 0.0000000000000000e+00  -9.7736404760058026e-03 2.0108541207770380e-03 -3.8134086665469621e-03  -1.0188786290766546e-02 3.8840579716990257e-03 -7.3361443450139360e-03  -1.1488237880417810e-02 7.5300423813969026e-03 -1.4042939081638943e-02  -1.0661177003273216e-02 6.1352701874305042e-03 -1.1532519287842481e-02  -1.2336786429145629e-02 1.1478813835112123e-02 -2.1238989413179414e-02  -1.3244420807435832e-02 1.3042394109940725e-02 -2.3942580363801518e-02  -8.4977304442872270e-03 0.0000000000000000e+00 0.0000000000000000e+00  -8.9259614249555877e-03 1.9990591026403277e-03 -3.8236095066626345e-03  -1.1462772539670502e-02 9.9714913170654267e-03 -1.8598290827763382e-02  -9.3256270605129466e-03 3.9806473205411990e-03 -7.5823850551728121e-03  -9.8028156835266254e-03 5.4580976699300362e-03 -1.0346944729294460e-02  -1.0646510841335249e-02 8.6506755215570667e-03 -1.6261517746013619e-02  -9.8541081510066398e-03 7.3677762644647942e-03 -1.3959369635563684e-02  -1.2322782070239992e-02 1.4017653610070747e-02 -2.5939405612500625e-02  -1.3227449585302203e-02 1.5633521399701252e-02 -2.8704339722478579e-02  -7.6705701225850947e-03 0.0000000000000000e+00 0.0000000000000000e+00  -8.0781436254375068e-03 1.9438667412141365e-03 -3.7523405851545479e-03  -1.1451349685865172e-02 1.2457992463272838e-02 -2.3236247006013518e-02  -8.4972856370855356e-03 4.0433506252243933e-03 -7.7694622858595214e-03  -1.0638153404965272e-02 1.1029093882054900e-02 -2.0731321204627947e-02  -9.0137257740495139e-03 6.1846007115028889e-03 -1.1819194628246229e-02  -9.8698287287176927e-03 9.6927176562959048e-03 -1.8359155784036015e-02  -9.1447638888365011e-03 8.5733117879827608e-03 -1.6361058019164203e-02  -6.8837391980840247e-03 0.0000000000000000e+00 0.0000000000000000e+00  -7.2712729786581229e-03 1.8901371033161641e-03 -3.6818299332429701e-03  -1.2306047109933329e-02 1.6548661451443198e-02 -3.0627470520435830e-02  -1.3207487734604220e-02 1.8216411556713923e-02 -3.3453013067607167e-02  -1.1437443793965506e-02 1.4937235850154818e-02 -2.7862772733125346e-02  -7.6680924526375174e-03 3.8335105616071241e-03 -7.4334536776625940e-03  -1.0601215680641079e-02 1.3381774770429995e-02 -2.5159981400166630e-02  -8.0692517622863412e-03 5.8551732764838913e-03 -1.1302996014697314e-02  -9.8487230877917827e-03 1.1965962254180102e-02 -2.2666810592118964e-02  -8.3764599848611451e-03 7.9897303573091289e-03 -1.5370675773893039e-02  -9.1429985216343237e-03 1.0608609133761399e-02 -2.0242393439116272e-02  -8.6253993246239620e-03 9.6338269700289927e-03 -1.8483869176373669e-02  -6.1361540305737853e-03 0.0000000000000000e+00 0.0000000000000000e+00  -6.5042520344715977e-03 1.8367387109271029e-03 -3.6106132548891171e-03  -6.8815316211231405e-03 3.7260970279171441e-03 -7.2913336163221995e-03  -1.2286612796950456e-02 1.9070947328360854e-02 -3.5301627077512297e-02  -1.3184582896780218e-02 2.0790444285276072e-02 -3.8187378548027034e-02  -1.1421035915060797e-02 1.7408044144022958e-02 -3.2475980247400157e-02  -1.0587496776721763e-02 1.5801121869258566e-02 -2.9711159748701182e-02  -7.2673691571828580e-03 5.6677777389534849e-03 -1.1040679633578786e-02  -9.7855157796039715e-03 1.4249834061316488e-02 -2.7008187863970797e-02  -7.5860645183904261e-03 7.6684913555728111e-03 -1.4882740286915353e-02  -9.1111902266149836e-03 1.2750916457778552e-02 -2.4336849201220430e-02  -7.9595950188666199e-03 9.5888557655548282e-03 -1.8531866638729882e-02  -8.4780842604350991e-03 1.1292262233630409e-02 -2.1700533015723663e-02  -5.4265812493198059e-03 0.0000000000000000e+00 0.0000000000000000e+00  -5.7758543907822169e-03 1.7836942440918352e-03 -3.5387235894592164e-03  -6.1341552791558812e-03 3.6195059136622963e-03 -7.1480380497777789e-03  -6.5009154383089719e-03 5.5070027186249300e-03 -1.0826261084868611e-02  -1.2264492838868334e-02 2.1583366516409932e-02 -3.9960034326335998e-02  -1.3158781252245367e-02 2.3353218084839901e-02 -4.2904092575210308e-02  -1.1402201124794680e-02 1.9869607005912317e-02 -3.7074385500017522e-02  -1.0571535817954841e-02 1.8211602682790914e-02 -3.4248167738437321e-02  -9.7720999892544728e-03 1.6609058021219553e-02 -3.1482558644879755e-02  -6.8760024216308387e-03 7.4457646651181365e-03 -1.4571763309967652e-02  -9.0305845651275276e-03 1.4959164237744103e-02 -2.8574691169415700e-02  -7.2377859892910510e-03 9.5302974748465771e-03 -1.8572821667229414e-02  -8.3474815096492641e-03 1.3474457717379084e-02 -2.5930152934733552e-02  -7.6694077299492933e-03 1.1923125844689941e-02 -2.3120752782914450e-02  -4.7539504872575944e-03 0.0000000000000000e+00 0.0000000000000000e+00  -5.0849542537337528e-03 1.7311352129758049e-03 -3.4663445540528484e-03  -5.4248329501162228e-03 3.5138515984848777e-03 -7.0037119654961146e-03  -5.7730123576443465e-03 5.3476904710810591e-03 -1.0610377370320020e-02  -6.1294210215629254e-03 7.2320972753175134e-03 -1.4284506444224574e-02  -1.2239702492382957e-02 2.4084752581749368e-02 -4.4600842052514307e-02  -1.3130130011752500e-02 2.5903896014486477e-02 -4.7601711362743299e-02  -1.1380890702457357e-02 2.2321150779086779e-02 -4.1656626411724219e-02  -1.0553327225222111e-02 2.0612984643668866e-02 -3.8770415741999908e-02  -9.7566465658667396e-03 1.8959967404204855e-02 -3.5943301845724342e-02  -8.9904110561307097e-03 1.7361910735036172e-02 -3.3176560890999338e-02  -6.4699951653869681e-03 9.1915423697323233e-03 -1.8078306923919544e-02  -8.2694021185803369e-03 1.5719925939734435e-02 -3.0275557809514388e-02  -6.8316008369697472e-03 1.1179008594419558e-02 -2.1891184748347083e-02  -7.5967990697525800e-03 1.4260907372412901e-02 -2.7675461500853548e-02  -7.0520939160205378e-03 1.2987158505643748e-02 -2.5365404732314054e-02  -4.1171428890217866e-03 0.0000000000000000e+00 0.0000000000000000e+00  -4.4304850716289784e-03 1.6790840598938765e-03 -3.3934757249042204e-03  -4.7524449320937604e-03 3.4092512417850419e-03 -6.8584786583262879e-03  -1.2212381184181728e-02 2.6574967664290898e-02 -4.9223445385580905e-02  -1.3098677450435825e-02 2.8443597165059082e-02 -5.2281154394456228e-02  -5.0826019506039627e-03 5.1900854194019685e-03 -1.0393332856774120e-02  -5.4208817772423614e-03 7.0211079719923360e-03 -1.3996262817547886e-02  -5.7671705054749669e-03 8.9019471806733828e-03 -1.7665682981597697e-02  -1.1357233287649315e-02 2.4762256766112514e-02 -4.6221867773466110e-02  -1.0532918283052766e-02 2.3004785826881514e-02 -4.3276964923039750e-02  -9.7391586021058820e-03 2.1302261729249563e-02 -4.0389769522587424e-02  -8.9755250218228489e-03 1.9654596998092713e-02 -3.7561714892700125e-02  -8.2416328431934409e-03 1.8061901224559453e-02 -3.4794464225332562e-02  -6.1049945837820981e-03 1.0893721942237651e-02 -2.1525550072372453e-02  -7.5475072447747961e-03 1.6450457407293190e-02 -3.1941960676369077e-02  -6.4401335697789538e-03 1.2787480640048594e-02 -2.5162128314759946e-02  -6.8418794605419201e-03 1.4854465407694273e-02 -2.9086329267824024e-02  -3.5151189324428510e-03 0.0000000000000000e+00 0.0000000000000000e+00  -3.8113007954156271e-03 1.6275897492425092e-03 -3.3201945789456022e-03  -4.1159162683742870e-03 3.3057216696822799e-03 -6.7123478688929624e-03  -4.4285276860191241e-03 5.0340731958135295e-03 -1.0174920422946801e-02  -2.9468068979071351e-03 0.0000000000000000e+00 0.0000000000000000e+00  -3.2263730419689230e-03 1.5766568585477037e-03 -3.2465050777254539e-03  -1.2182509259408749e-02 2.9053759191792962e-02 -5.3827131445679563e-02  -1.3064473286308959e-02 3.0971250644378043e-02 -5.6940726262527282e-02  -1.1331286388715160e-02 2.7192235549207456e-02 -5.0768696873876112e-02  -4.7491371806720820e-03 6.8122444723566549e-03 -1.3706253058327577e-02  -5.0776776499023742e-03 8.6398124455185875e-03 -1.7304646215499979e-02  -5.4140930902162737e-03 1.0516543798967864e-02 -2.0968672709112755e-02  -1.0510501048157738e-02 2.5386181151767783e-02 -4.7766257050525632e-02  -9.7197915285718167e-03 2.3635141305095270e-02 -4.4820655419026023e-02  -8.9589054482838246e-03 2.1938691004925376e-02 -4.1932626620180241e-02  -8.2273907518436648e-03 2.0296849225503719e-02 -3.9103732967456624e-02  -7.5420830296119108e-03 1.8630749103166679e-02 -3.6175093264626243e-02  -5.7076305604454296e-03 1.2448821465273138e-02 -2.4726177826129583e-02  -6.9040292042555212e-03 1.7135986605848998e-02 -3.3526803076166865e-02  -6.0207211628580766e-03 1.4454259180848831e-02 -2.8593198317520170e-02  -6.3350846394327068e-03 1.6167360372219747e-02 -3.1854786183744405e-02  -3.5141244964984309e-03 3.2033170266303475e-03 -6.5654064160290465e-03  -3.8097591723619925e-03 4.8797083924251496e-03 -9.9552251516509642e-03  -4.1132078573794606e-03 6.6054934911040529e-03 -1.3414391100372252e-02  -2.4111578849876246e-03 0.0000000000000000e+00 0.0000000000000000e+00  -2.6746494252797835e-03 1.5262980969652892e-03 -3.1724245878123570e-03  -2.9460708353273623e-03 3.1020439752322583e-03 -6.4176580703702059e-03  -1.2150130155478044e-02 3.1520372278098834e-02 -5.8410588832407066e-02  -1.3027569314021917e-02 3.3486133555629224e-02 -6.1579160431957720e-02  -1.1303023424251123e-02 2.9610575109338341e-02 -5.5296147377988006e-02  -1.0485967110665862e-02 2.7756302347596757e-02 -5.2236736083080777e-02  -4.4244526006565242e-03 8.3802987225503143e-03 -1.6941292192967434e-02  -4.7434917235732853e-03 1.0203778301533174e-02 -2.0534338800799978e-02  -5.0702758830809391e-03 1.2075891037398753e-02 -2.4192397660657419e-02  -9.6986511671562567e-03 2.5957182752184497e-02 -4.9233349115860664e-02  -8.9406946865191756e-03 2.4212864351871175e-02 -4.6286978745892784e-02  -8.2117330320927145e-03 2.2522850765840943e-02 -4.3398258875399151e-02  -7.5114581463135970e-03 2.0886867143934659e-02 -4.0568165503890946e-02  -6.8535220244046605e-03 1.9219202645212922e-02 -3.7623839738029449e-02  -5.3950518478626626e-03 1.4124081835291191e-02 -2.8172009628580734e-02  -6.3006512289212474e-03 1.7857968435028973e-02 -3.5200940436829135e-02  -5.7151312641386095e-03 1.6238682369896167e-02 -3.2252850941412690e-02  -3.2251868227683314e-03 4.7270225918009277e-03 -9.7342997986656216e-03  -3.5119827596353289e-03 6.4009422202264705e-03 -1.3120838555937641e-02  -3.8064605167277619e-03 8.1234838560657781e-03 -1.6575728254044120e-02  -1.9072297739426052e-03 0.0000000000000000e+00 0.0000000000000000e+00  -2.1551418922667776e-03 1.4765165015906434e-03 -3.0979554906864072e-03  -2.4106875249835561e-03 3.0019233089233388e-03 -6.2691330239498877e-03  -2.6737884440954495e-03 4.5760379907350355e-03 -9.5121703232396628e-03  -1.2115288125960483e-02 3.3974142293698453e-02 -6.2972630591762502e-02  -1.2988018729121789e-02 3.5987607314580422e-02 -6.6195313239141115e-02  -1.1272480606352003e-02 3.2016625858057556e-02 -5.9803041268548934e-02  -1.0459334962164423e-02 3.0114650112626200e-02 -5.6687480544502969e-02  -9.6755619645504456e-03 2.8267844697902274e-02 -5.3626930018503674e-02  -4.1085834140853240e-03 9.8943047255000745e-03 -2.0097400889367099e-02  -4.4182831930312388e-03 1.1713041693638963e-02 -2.3684274295061765e-02  -4.7111843836719607e-03 1.3631787923156807e-02 -2.7449198072854612e-02  -8.9208098912931071e-03 2.6475862945279038e-02 -5.0622404217182879e-02  -8.1947161043980227e-03 2.4738443643915645e-02 -4.7675035911169179e-02  -7.4968800194828164e-03 2.3055152296412251e-02 -4.4785599731599367e-02  -6.8270159825214007e-03 2.1425413303406485e-02 -4.1954509330416383e-02  -6.2077884325164338e-03 1.9845658527572412e-02 -3.9164264576674504e-02  -4.9979100099910283e-03 1.5495010311449916e-02 -3.1076591753645477e-02  -5.6581580047793878e-03 1.8413336191756946e-02 -3.6599348308256265e-02  -5.1810475510511754e-03 1.7116948232663211e-02 -3.4243412686126094e-02  -2.9444486915484887e-03 6.1986254047015328e-03 -1.2825631820766370e-02  -3.2226536390419671e-03 7.8694164728001816e-03 -1.6208039810809035e-02  -3.5083239090910353e-03 9.5881136800375737e-03 -1.9657894378287095e-02  -1.4340262592896003e-03 0.0000000000000000e+00 0.0000000000000000e+00  -1.6667960359026237e-03 1.4273321424962753e-03 -3.0231296230672790e-03  -1.9069890225919773e-03 2.9029824928932927e-03 -6.1198693370914025e-03  -2.1545696091975629e-03 4.4267937779345814e-03 -9.2888897054353020e-03  -2.4095409978991096e-03 5.9985701473807820e-03 -1.2528808736906635e-02  -1.2078028242315075e-02 3.6414465057905597e-02 -6.7512158814270737e-02  -1.2945875667288061e-02 3.8475075841713717e-02 -7.0788102802085071e-02  -1.1239694884521539e-02 3.4409784149199596e-02 -6.4288277384194792e-02  -1.0430634060258818e-02 3.2460634960271746e-02 -6.1117395672006289e-02  -9.6505763283711576e-03 3.0566657926238801e-02 -5.8000498138540559e-02  -8.8991897327172342e-03 2.8727514280023909e-02 -5.4938606643507283e-02  -3.8014662654836293e-03 1.1354431689922532e-02 -2.3173703188284333e-02  -4.1020401254909756e-03 1.3168202613994862e-02 -2.6754152246302971e-02  -4.3920577486398858e-03 1.5056236663910880e-02 -3.0460489654102460e-02  -8.1761511368970974e-03 2.6942911089810700e-02 -5.1932786277135372e-02  -7.4810951946985447e-03 2.5212619598479796e-02 -4.8984219222823047e-02  -6.8136328638518200e-03 2.3536317066157553e-02 -4.6093924574025183e-02  -6.1733064062073524e-03 2.1913336592363743e-02 -4.3262232885896423e-02  -5.5685684052945812e-03 2.0344795737049566e-02 -4.0487218484657403e-02  -4.6653802599037489e-03 1.6803925736833390e-02 -3.3862907892301009e-02  -4.9866526076336052e-03 1.8772619439516865e-02 -3.7659224354676279e-02  -2.6719234447009181e-03 7.6180950215262323e-03 -1.5838222337891509e-02  -2.9416488062504642e-03 9.2851337040679646e-03 -1.9215716462769882e-02  -3.2187514498793826e-03 1.0999413435663777e-02 -2.2659806187894860e-02  -9.9052957963449684e-04 0.0000000000000000e+00 0.0000000000000000e+00  -1.2086290454642852e-03 1.3787691199564070e-03 -2.9479840215943642e-03  -1.4339410607726879e-03 2.8052603688440135e-03 -5.9699291368922906e-03  -1.6664864643433201e-03 4.2793400774801685e-03 -9.0645356229021035e-03  -1.9062684837241348e-03 5.8008477233719219e-03 -1.2230470418159643e-02  -2.1532900639563155e-03 7.3696253789569720e-03 -1.5466417798148856e-02  -1.2038396176162555e-02 3.8840782524941130e-02 -7.2028145531519039e-02  -1.2901194428148759e-02 4.0947990229342382e-02 -7.5356522101492407e-02  -1.1204704046142501e-02 3.6789485632291570e-02 -6.8750812325812705e-02  -1.0399894965417395e-02 3.4793698373214693e-02 -6.5525439644422812e-02  -9.6237181233360183e-03 3.2853075860991787e-02 -6.2353022617664448e-02  -8.8758604743685975e-03 3.0967290000081110e-02 -5.9234588319494040e-02  -8.1560177278078867e-03 2.9136053298056699e-02 -5.6171198982788405e-02  -3.5030952368660900e-03 1.2760578259675186e-02 -2.6168926261411742e-02  -3.7947535121814952e-03 1.4568172767270342e-02 -2.9741333018776829e-02  -4.0231644392104103e-03 1.6326490199736789e-02 -3.3216344920270140e-02  -7.4638434611691588e-03 2.7359126724161378e-02 -5.3164002558771004e-02  -6.7990115683031994e-03 2.5636323471293923e-02 -5.0214212983743838e-02  -6.1610493998118486e-03 2.3967546296491830e-02 -4.7323265924822569e-02  -5.5666281262414050e-03 2.2306459361855938e-02 -4.4390273589867191e-02  -5.0194577662376122e-03 2.0812133029044576e-02 -4.1731059112042737e-02  -4.2911763200662338e-03 1.8263122576829931e-02 -3.7007685210766791e-02  -4.5517374418253846e-03 1.9831785261068029e-02 -4.0033007991306095e-02  -2.4075610130532702e-03 8.9854686607753875e-03 -1.8770992873924867e-02  -2.6690219210284451e-03 1.0648174766805117e-02 -2.2142836265965710e-02  -2.9376527654726599e-03 1.2357451486907194e-02 -2.5580449164197210e-02  -5.7579741960493475e-04 0.0000000000000000e+00 0.0000000000000000e+00  -7.7969105630879216e-04 1.3308566535169476e-03 -2.8725640825987713e-03  -1.8889464375340846e-04 0.0000000000000000e+00 0.0000000000000000e+00  -3.7900217759917276e-04 1.2836228208015514e-03 -2.7969185152695837e-03  1.7110595965109368e-04 0.0000000000000000e+00 0.0000000000000000e+00  -5.6085152830410491e-06 1.2371069327650564e-03 -2.7211166393474699e-03  -9.9058665311094435e-04 2.7088243026517742e-03 -5.8194166006017324e-03  -1.2085983009919702e-03 4.1337682394412493e-03 -8.8392428527759043e-03  -1.4336494411002669e-03 5.6055808515455361e-03 -1.1930800164797115e-02  -1.6658065633726148e-03 7.1241321427422547e-03 -1.5092800317814556e-02  -1.9050307813111330e-03 8.6892891547576297e-03 -1.8323978968932356e-02  5.0518838285011831e-04 0.0000000000000000e+00 0.0000000000000000e+00  3.4136740823058196e-04 1.1913407500205478e-03 -2.6452149960652744e-03  -1.1996437650348329e-02 4.1252588403475600e-02 -7.6519646682873949e-02  -1.2854029015320271e-02 4.3405841797955341e-02 -7.9899628137975465e-02  -1.1167546332067855e-02 3.9155213593819210e-02 -7.3189678111471729e-02  -1.0367149020793181e-02 3.7113317746654460e-02 -6.9910628145157777e-02  -9.5950123466119405e-03 3.5126573308168707e-02 -6.6683508658558238e-02  -8.8508413821229686e-03 3.3194653852921391e-02 -6.3509334522896005e-02  -8.1343497851493300e-03 3.1317284239738084e-02 -6.0389176252973006e-02  -7.4452092958118199e-03 2.9494230475557017e-02 -5.7324180538457982e-02  -3.2134481734590486e-03 1.4112946949491421e-02 -2.9082240415191231e-02  -3.4856488965610802e-03 1.5845999012840208e-02 -3.2512022617815460e-02  -3.7451327632408377e-03 1.7779423660785394e-02 -3.6331479688765725e-02  -6.7831120858725521e-03 2.7725287106206788e-02 -5.4315513463466983e-02  -6.1476441554478897e-03 2.6010232894490413e-02 -5.1364371390270468e-02  -5.5384814714059529e-03 2.4348965901014579e-02 -4.8472144129225646e-02  -4.9727774749378931e-03 2.2681559665915778e-02 -4.5508638008808618e-02  -4.5228934721385436e-03 2.1343135645506533e-02 -4.3103117979897278e-02  -4.0237809404616402e-03 1.9779682126202441e-02 -4.0246752794917552e-02  -2.1513381136548317e-03 1.0300871580914995e-02 -2.1622989567013792e-02  -2.4046685736848917e-03 1.1958695001833391e-02 -2.4988507038766455e-02  -2.6650702977138578e-03 1.3662485603554408e-02 -2.8419045195251836e-02  -5.7598414294668084e-04 2.6137142324329757e-03 -5.6683970817455265e-03  -1.8915474220976779e-04 2.5199951388247431e-03 -5.5169844668708189e-03  1.7083978037711706e-04 2.4277321411598821e-03 -5.3652965878303593e-03  -7.7987553095081421e-04 3.9901472479534324e-03 -8.6131328869759067e-03  -9.9066227621448467e-04 5.4128411505426259e-03 -1.1629916879455141e-02  -1.2083941721061650e-03 6.8817280396033841e-03 -1.4717560862928730e-02  -1.4330644941390879e-03 8.3967108115056074e-03 -1.7874845652331769e-02  -1.6646492495540426e-03 9.9576801373308967e-03 -2.1100542080936192e-02  8.1422835188323171e-04 0.0000000000000000e+00 0.0000000000000000e+00  6.6284213964262686e-04 1.1463458488334662e-03 -2.5692575562075862e-03  5.0490511703089424e-04 2.3369880401365624e-03 -5.2134514243078623e-03  1.0991671674477927e-03 0.0000000000000000e+00 0.0000000000000000e+00  9.5976307339922472e-04 1.1021444440691901e-03 -2.4932950726418998e-03  -1.1952198385861739e-02 4.3649407268712040e-02 -8.098576487