<?xml version="1.0"?>
<VTKFile type="UnstructuredGrid"  version="0.1"  >
<UnstructuredGrid>
<Piece  NumberOfPoints="1024" NumberOfCells="961">
<Points>
<DataArray  type="Float64"  NumberOfComponents="3"  format="ascii">0 0 0  0.03225806451612903 0 0  0.06451612903225806 0 0  0.09677419354838709 0 0  0.1290322580645161 0 0  0.1612903225806452 0 0  0.1935483870967742 0 0  0.2258064516129032 0 0  0.2580645161290323 0 0  0.2903225806451613 0 0  0.3225806451612903 0 0  0.3548387096774194 0 0  0.3870967741935484 0 0  0.4193548387096774 0 0  0.4516129032258064 0 0  0.4838709677419355 0 0  0.5161290322580645 0 0  0.5483870967741935 0 0  0.5806451612903225 0 0  0.6129032258064516 0 0  0.6451612903225806 0 0  0.6774193548387096 0 0  0.7096774193548387 0 0  0.7419354838709677 0 0  0.7741935483870968 0 0  0.8064516129032258 0 0  0.8387096774193548 0 0  0.8709677419354839 0 0  0.9032258064516129 0 0  0.9354838709677419 0 0  0.967741935483871 0 0  1 0 0  0 0.03225806451612903 0  0.03225806451612903 0.03225806451612903 0  0.06451612903225806 0.03225806451612903 0  0.09677419354838709 0.03225806451612903 0  0.1290322580645161 0.03225806451612903 0  0.1612903225806452 0.03225806451612903 0  0.1935483870967742 0.03225806451612903 0  0.2258064516129032 0.03225806451612903 0  0.2580645161290323 0.03225806451612903 0  0.2903225806451613 0.03225806451612903 0  0.3225806451612903 0.03225806451612903 0  0.3548387096774194 0.03225806451612903 0  0.3870967741935484 0.03225806451612903 0  0.4193548387096774 0.03225806451612903 0  0.4516129032258064 0.03225806451612903 0  0.4838709677419355 0.03225806451612903 0  0.5161290322580645 0.03225806451612903 0  0.5483870967741935 0.03225806451612903 0  0.5806451612903225 0.03225806451612903 0  0.6129032258064516 0.03225806451612903 0  0.6451612903225806 0.03225806451612903 0  0.6774193548387096 0.03225806451612903 0  0.7096774193548387 0.03225806451612903 0  0.7419354838709677 0.03225806451612903 0  0.7741935483870968 0.03225806451612903 0  0.8064516129032258 0.03225806451612903 0  0.8387096774193548 0.03225806451612903 0  0.8709677419354839 0.03225806451612903 0  0.9032258064516129 0.03225806451612903 0  0.9354838709677419 0.03225806451612903 0  0.967741935483871 0.03225806451612903 0  1 0.03225806451612903 0  0 0.06451612903225806 0  0.03225806451612903 0.06451612903225806 0  0.06451612903225806 0.06451612903225806 0  0.09677419354838709 0.06451612903225806 0  0.1290322580645161 0.06451612903225806 0  0.1612903225806452 0.06451612903225806 0  0.1935483870967742 0.06451612903225806 0  0.2258064516129032 0.06451612903225806 0  0.2580645161290323 0.06451612903225806 0  0.2903225806451613 0.06451612903225806 0  0.3225806451612903 0.06451612903225806 0  0.3548387096774194 0.06451612903225806 0  0.3870967741935484 0.06451612903225806 0  0.4193548387096774 0.06451612903225806 0  0.4516129032258064 0.06451612903225806 0  0.4838709677419355 0.06451612903225806 0  0.5161290322580645 0.06451612903225806 0  0.5483870967741935 0.06451612903225806 0  0.5806451612903225 0.06451612903225806 0  0.6129032258064516 0.06451612903225806 0  0.6451612903225806 0.06451612903225806 0  0.6774193548387096 0.06451612903225806 0  0.7096774193548387 0.06451612903225806 0  0.7419354838709677 0.06451612903225806 0  0.7741935483870968 0.06451612903225806 0  0.8064516129032258 0.06451612903225806 0  0.8387096774193548 0.06451612903225806 0  0.8709677419354839 0.06451612903225806 0  0.9032258064516129 0.06451612903225806 0  0.9354838709677419 0.06451612903225806 0  0.967741935483871 0.06451612903225806 0  1 0.06451612903225806 0  0 0.09677419354838709 0  0.03225806451612903 0.09677419354838709 0  0.06451612903225806 0.09677419354838709 0  0.09677419354838709 0.09677419354838709 0  0.1290322580645161 0.09677419354838709 0  0.1612903225806452 0.09677419354838709 0  0.1935483870967742 0.09677419354838709 0  0.2258064516129032 0.09677419354838709 0  0.2580645161290323 0.09677419354838709 0  0.2903225806451613 0.09677419354838709 0  0.3225806451612903 0.09677419354838709 0  0.3548387096774194 0.09677419354838709 0  0.3870967741935484 0.09677419354838709 0  0.4193548387096774 0.09677419354838709 0  0.4516129032258064 0.09677419354838709 0  0.4838709677419355 0.09677419354838709 0  0.5161290322580645 0.09677419354838709 0  0.5483870967741935 0.09677419354838709 0  0.5806451612903225 0.09677419354838709 0  0.6129032258064516 0.09677419354838709 0  0.6451612903225806 0.09677419354838709 0  0.6774193548387096 0.09677419354838709 0  0.7096774193548387 0.09677419354838709 0  0.7419354838709677 0.09677419354838709 0  0.7741935483870968 0.09677419354838709 0  0.8064516129032258 0.09677419354838709 0  0.8387096774193548 0.09677419354838709 0  0.8709677419354839 0.09677419354838709 0  0.9032258064516129 0.09677419354838709 0  0.9354838709677419 0.09677419354838709 0  0.967741935483871 0.09677419354838709 0  1 0.09677419354838709 0  0 0.1290322580645161 0  0.03225806451612903 0.1290322580645161 0  0.06451612903225806 0.1290322580645161 0  0.09677419354838709 0.1290322580645161 0  0.1290322580645161 0.1290322580645161 0  0.1612903225806452 0.1290322580645161 0  0.1935483870967742 0.1290322580645161 0  0.2258064516129032 0.1290322580645161 0  0.2580645161290323 0.1290322580645161 0  0.2903225806451613 0.1290322580645161 0  0.3225806451612903 0.1290322580645161 0  0.3548387096774194 0.1290322580645161 0  0.3870967741935484 0.1290322580645161 0  0.4193548387096774 0.1290322580645161 0  0.4516129032258064 0.1290322580645161 0  0.4838709677419355 0.1290322580645161 0  0.5161290322580645 0.1290322580645161 0  0.5483870967741935 0.1290322580645161 0  0.5806451612903225 0.1290322580645161 0  0.6129032258064516 0.1290322580645161 0  0.6451612903225806 0.1290322580645161 0  0.6774193548387096 0.1290322580645161 0  0.7096774193548387 0.1290322580645161 0  0.7419354838709677 0.1290322580645161 0  0.7741935483870968 0.1290322580645161 0  0.8064516129032258 0.1290322580645161 0  0.8387096774193548 0.1290322580645161 0  0.8709677419354839 0.1290322580645161 0  0.9032258064516129 0.1290322580645161 0  0.9354838709677419 0.1290322580645161 0  0.967741935483871 0.1290322580645161 0  1 0.1290322580645161 0  0 0.1612903225806452 0  0.03225806451612903 0.1612903225806452 0  0.06451612903225806 0.1612903225806452 0  0.09677419354838709 0.1612903225806452 0  0.1290322580645161 0.1612903225806452 0  0.1612903225806452 0.1612903225806452 0  0.1935483870967742 0.1612903225806452 0  0.2258064516129032 0.1612903225806452 0  0.2580645161290323 0.1612903225806452 0  0.2903225806451613 0.1612903225806452 0  0.3225806451612903 0.1612903225806452 0  0.3548387096774194 0.1612903225806452 0  0.3870967741935484 0.1612903225806452 0  0.4193548387096774 0.1612903225806452 0  0.4516129032258064 0.1612903225806452 0  0.4838709677419355 0.1612903225806452 0  0.5161290322580645 0.1612903225806452 0  0.5483870967741935 0.1612903225806452 0  0.5806451612903225 0.1612903225806452 0  0.6129032258064516 0.1612903225806452 0  0.6451612903225806 0.1612903225806452 0  0.6774193548387096 0.1612903225806452 0  0.7096774193548387 0.1612903225806452 0  0.7419354838709677 0.1612903225806452 0  0.7741935483870968 0.1612903225806452 0  0.8064516129032258 0.1612903225806452 0  0.8387096774193548 0.1612903225806452 0  0.8709677419354839 0.1612903225806452 0  0.9032258064516129 0.1612903225806452 0  0.9354838709677419 0.1612903225806452 0  0.967741935483871 0.1612903225806452 0  1 0.1612903225806452 0  0 0.1935483870967742 0  0.03225806451612903 0.1935483870967742 0  0.06451612903225806 0.1935483870967742 0  0.09677419354838709 0.1935483870967742 0  0.1290322580645161 0.1935483870967742 0  0.1612903225806452 0.1935483870967742 0  0.1935483870967742 0.1935483870967742 0  0.2258064516129032 0.1935483870967742 0  0.2580645161290323 0.1935483870967742 0  0.2903225806451613 0.1935483870967742 0  0.3225806451612903 0.1935483870967742 0  0.3548387096774194 0.1935483870967742 0  0.3870967741935484 0.1935483870967742 0  0.4193548387096774 0.1935483870967742 0  0.4516129032258064 0.1935483870967742 0  0.4838709677419355 0.1935483870967742 0  0.5161290322580645 0.1935483870967742 0  0.5483870967741935 0.1935483870967742 0  0.5806451612903225 0.1935483870967742 0  0.6129032258064516 0.1935483870967742 0  0.6451612903225806 0.1935483870967742 0  0.6774193548387096 0.1935483870967742 0  0.7096774193548387 0.1935483870967742 0  0.7419354838709677 0.1935483870967742 0  0.7741935483870968 0.1935483870967742 0  0.8064516129032258 0.1935483870967742 0  0.8387096774193548 0.1935483870967742 0  0.8709677419354839 0.1935483870967742 0  0.9032258064516129 0.1935483870967742 0  0.9354838709677419 0.1935483870967742 0  0.967741935483871 0.1935483870967742 0  1 0.1935483870967742 0  0 0.2258064516129032 0  0.03225806451612903 0.2258064516129032 0  0.06451612903225806 0.2258064516129032 0  0.09677419354838709 0.2258064516129032 0  0.1290322580645161 0.2258064516129032 0  0.1612903225806452 0.2258064516129032 0  0.1935483870967742 0.2258064516129032 0  0.2258064516129032 0.2258064516129032 0  0.2580645161290323 0.2258064516129032 0  0.2903225806451613 0.2258064516129032 0  0.3225806451612903 0.2258064516129032 0  0.3548387096774194 0.2258064516129032 0  0.3870967741935484 0.2258064516129032 0  0.4193548387096774 0.2258064516129032 0  0.4516129032258064 0.2258064516129032 0  0.4838709677419355 0.2258064516129032 0  0.5161290322580645 0.2258064516129032 0  0.5483870967741935 0.2258064516129032 0  0.5806451612903225 0.2258064516129032 0  0.6129032258064516 0.2258064516129032 0  0.6451612903225806 0.2258064516129032 0  0.6774193548387096 0.2258064516129032 0  0.7096774193548387 0.2258064516129032 0  0.7419354838709677 0.2258064516129032 0  0.7741935483870968 0.2258064516129032 0  0.8064516129032258 0.2258064516129032 0  0.8387096774193548 0.2258064516129032 0  0.8709677419354839 0.2258064516129032 0  0.9032258064516129 0.2258064516129032 0  0.9354838709677419 0.2258064516129032 0  0.967741935483871 0.2258064516129032 0  1 0.225806451
[...]
<CellData  Scalars="f_44"> 
<DataArray  type="Float64"  Name="f_44"  format="ascii">4.3519044076625379e-02   1.4368892076162749e-02   1.1567055791525453e-02   1.0000000000000000e-02   1.3286746834076494e-02   1.1250182325132722e-02   1.1254672057392421e-02   1.0512293139070731e-02   2.5293114722498771e-02   1.0000000000000000e-02   1.1496152348925145e-02   2.0469416898776537e-02   5.0318492289935624e-02   1.4617460243241887e-02   2.0143212212309558e-01   1.5166703841782751e-02   7.1428525272634422e-02   1.3316092846516836e-02   3.2091059064557315e-01   1.2223404175650616e-02   1.0000000000087793e-02   5.3216357986634388e-01   2.3449104645510990e+00   4.5356611027639646e+00   5.2220991128234626e+00   6.1876096612453049e+00   1.0000000000000000e+01   5.7612048183620324e-01   1.0000000000016171e-02   1.0000000000016839e-02   3.9032010917463391e+00   1.0000000000000000e-02   2.5111363355387720e-02   1.0523931293924940e-02   1.0000000000000000e-02   1.1763529792776227e-02   1.0000000000000000e-02   1.0000000000038487e-02   1.5836018978902154e-02   2.4994996211688780e-02   2.7688465273942225e-02   1.0000000000000000e-02   1.0000000000003137e-02   5.0529669568626964e-02   1.0358001764647673e-01   1.1274980311091191e-01   9.5648190933791330e-02   1.0000000000096159e-02   1.6737424017786627e-02   1.5431678828889389e-01   1.7824617282240999e-02   3.3271310582033997e-01   3.6030334964223071e-01   1.4357214498071245e+00   2.3749242886009214e+00   2.5665367167991886e+00   2.7336584761595200e+00   5.0157701131887764e+00   7.9456254174285865e+00   1.0000000000028732e-02   2.2080723973711042e-02   8.4353786497013896e+00   1.3067425376232589e-02   1.4690637526212394e-02   1.0000000000000000e-02   1.0000000000007336e-02   2.3386007709675215e-02   5.3777948053828468e-02   1.0000000000000000e-02   1.0585122760811808e-02   1.0000000000021898e-02   1.9356407481573915e-02   1.0639173511601294e-02   2.3966617767367318e-02   1.6872689991680796e-02   1.6124081090663889e-01   7.5555171040642605e-02   3.1196052404967228e-02   3.4090213038094550e-02   4.8622935570703928e-02   9.0510001535925588e-02   1.5683179887134958e-02   1.4014745284083150e-02   1.1626857208386715e-01   9.2831724432284002e-01   1.4645314666328875e+00   1.0601125629794956e+00   1.4397971102477360e+00   3.0804862435621474e+00   3.5255204029512206e+00   4.6285097827730448e+00   3.1080525204182360e-02   3.2632523273481451e+00   3.1284545639860085e-02   1.0000000000038232e-02   1.8178586158488781e-02   1.7147915338145574e-02   2.6825639759766026e-02   3.3948816046279320e-02   1.0000000000000000e-02   1.6232721446841063e-02   1.3873199354819371e-02   1.1671050638035313e-02   1.9205821603752119e-02   1.4013799403187300e-02   1.5381988941099050e-02   2.0162141601004813e-02   4.6077215346131684e-01   2.4988142690304697e-02   8.6589351036305648e-02   9.9038167884402617e-02   1.1294496400121010e-01   2.7819597232767385e-01   2.4276072342481356e-01   3.9151658597329425e-01   1.0091899650842082e+00   1.2997209755660331e+00   2.2623141070374209e-02   1.0779572562397639e+00   2.1187339213230425e+00   1.9842329067459787e+00   2.0066484299867131e+00   2.7392358928637388e+00   6.2290332640652828e+00   1.9325573434216467e-02   1.2878084051545790e-02   1.2187531748487128e-02   1.0000000000000000e-02   1.4065374047469515e-02   1.6784899436191658e-02   1.2819068119494719e-02   3.8638533576802289e-02   1.7887288690959062e-02   1.5818984762469870e-02   1.0000000000009510e-02   3.2290030803265618e-02   3.7978772087580125e-02   3.0873026016717396e-02   2.5390371554200094e-02   8.2258494161693146e-02   9.1705398344127984e-02   1.1300530969542769e-01   1.4385837132346521e-01   2.0011262191793064e-01   2.6764759019473300e-01   5.1306251024313443e-01   9.8448914597029091e-01   1.9140343431000191e-02   2.5117461558622659e-02   7.6554725163881499e-01   1.3648935232695474e+00   1.5351565740949729e+00   1.6035161094221548e+00   1.9662466470684286e+00   6.1638654623307918e+00   1.2347984956365913e-02   4.2796360395539024e-02   1.0000000000000000e-02   1.1220974303784990e-02   1.0000000000010986e-02   1.5529722297903378e-02   1.6981909524880833e-02   1.1413474288324565e-02   1.7173607849807222e-02   3.4947270237573769e-02   1.1056791067935568e-02   1.4134162400956513e-01   1.0000000000011238e-02   4.1378943083011821e-02   6.0357923152109624e-02   7.7383222729856496e-02   9.4377010682691623e-02   1.1803698068553613e-01   1.4991634595092723e-01   1.7500984319141641e-01   2.4581748957766228e-01   4.5433311670500293e-01   2.4277752338227007e-01   1.9535500386266041e-02   4.5034392336067203e-01   6.8896605120038079e-01   9.4204375258242012e-01   1.1141037122327249e+00   1.2593440291476019e+00   1.3869837715589353e+00   5.6351470871392939e+00   1.0000000000012964e-02   1.0054063512261199e-02   1.6615781845730881e-02   3.2657698284185160e-02   2.0123595043088933e-02   1.0000000000024366e-02   1.6028965541843840e-02   1.3701383384681616e-02   2.8322756968121060e-02   2.2170219195280561e-02   6.3890261437378526e-02   2.6040621972775835e-01   4.1224000473398192e-02   4.6781840655825337e-02   6.3157724315529504e-02   7.7034601443713546e-02   9.0598875100011356e-02   1.0609727396640231e-01   1.2995790333613291e-01   1.5733396176218009e-01   2.5787881289013731e-01   6.7349221347121832e-02   1.6851108092130317e-02   2.7510362208947564e-01   4.8087247828338719e-01   6.2602268963916430e-01   7.6535080784859388e-01   8.3138621525936385e-01   8.3173325821515498e-01   4.7999914969329960e-01   5.2948923072427325e+00   2.5366970249770460e-02   1.0000000000004691e-02   1.0000000000000000e-02   1.0000000000024085e-02   1.3898615253552116e-02   2.8224260677925314e-02   1.0000000000000000e-02   1.1540125095480145e-02   2.0284553823840892e-02   1.6831703940070469e-02   3.0522776477240929e-02   2.1346104879056423e-02   4.5939023359617588e-02   4.8697728729607676e-02   5.7731514602455195e-02   7.2067244515847326e-02   7.9538921868698972e-02   8.9254774283860291e-02   1.0041398381250853e-01   8.6926789046358172e-02   2.3434540261832480e-02   1.1297053233521058e-02   2.5993796237691880e-01   3.4580422695708146e-01   4.7569783186071946e-01   5.8737479622011790e-01   6.8094448052051249e-01   6.3871083076980995e-01   4.1628425125033452e-01   1.0000000000000000e-02   5.9015101718002736e+00   1.0000000000073906e-02   1.3609012313694949e-02   1.8471440469867612e-02   1.0892536965120299e-02   1.1834168723688223e-02   1.8161311198789446e-02   1.0000000000000000e-02   2.5494274993699207e-02   1.0000000000000000e-02   1.1795094331851178e-02   1.7853024844968552e-02   1.8381662493961368e-02   3.7976874889763423e-02   4.1393840359289696e-02   4.8710460681949778e-02   5.3649826791773186e-02   5.6269530980821318e-02   6.5369583228208822e-02   4.9437723099515093e-02   1.8913263131730192e-02   9.1061338620850515e-02   2.0555694802508950e-01   2.4678989079539601e-01   3.3517203012327862e-01   4.3065248482885982e-01   5.2042892315991574e-01   5.6540486060235051e-01   5.0595752489976797e-01   3.1429628047481512e-01   1.0000000000000000e-02   6.8052495140678859e+00   1.4296610605207077e-02   2.0250008501672100e-02   1.7224516465884729e-02   4.4231593564874550e-02   1.0000000000000000e-02   1.0000000000006311e-02   1.2894087090536226e-02   1.0000000000045002e-02   1.0000000000000000e-02   1.0000000000025367e-02   1.0769708901398715e-02   3.0832168838353432e-02   1.0945441634232398e-02   8.2155227687679619e-02   2.4624258890357693e-02   1.9870352503296752e-02   1.7289652922132928e-02   1.0000000000000000e-02   3.8859678521731632e-02   8.3443346918803021e-02   1.1875904233047495e-01   1.8151921489964756e-01   2.3441817389828851e-01   2.9979879082713395e-01   3.6273870037627171e-01   4.1341843009012297e-01   4.2362838026548943e-01   3.6959447470021384e-01   2.5486188704368806e-01   9.7322165602682933e-02   7.4218855806158652e+00   1.3294308523309666e-02   1.0000000000000000e-02   1.4764938222731824e-02   1.0000000000062625e-02   1.0000000000007081e-02   1.0810761571371974e-02   1.8549935697446729e-02   1.0000000000000000e-02   1.0000000000000000e-02   2.4272207846458723e-02   3.6820642393002295e-01   1.1874414084331679e-01   2.4750365154442813e-01   1.3899353626410413e-01   1.2756354132245857e+00   3.9234414144415658e-01   6.3214050042767450e-02   3.9812068800930196e-02   6.7984350458879059e-02   9.1629400693952034e-02   1.2574869191480828e-01   1.6372726037666782e-01   2.0572353721139763e-01   2.4466352259899993e-01   2.8179338142680216e-01   3.0421507161664679e-01   2.7355461044148915e-01   1.8805442367285891e-01   1.9010885692378247e-02   1.9618537187845599e-02   7.7253467477609776e+00   1.0000000000000000e-02   1.4572022211305611e-02   1.2986232047734719e-02   1.3044877074464062e-02   3.2497178519722406e-02   1.6144550150117041e-02   1.0000000000046604e-02   1.3973014085441535e-02   1.0000000000000000e-02   1.0000000000031633e-02   6.3618156608616236e-02   1.4406781217291725e-01   5.4129780043383223e-02   4.6962311207393770e-01   6.1252724562830832e-02   3.2940192328859016e-02   5.1260006571253500e-02   5.6031706446808729e-02   7.1752475033633467e-02   9.0134012091104415e-02   1.1387078475570525e-01   1.3821792478883119e-01   1.6232287348332625e-01   1.8236351914598059e-01   1.9670313332219178e-01   1.8160815474574368e-01   1.1509605487099099e-01   1.2711346121809058e-01   2.9830055005671863e-01   6.1399349679814985e-01   7.8572569764192242e+00   1.0000000000000000e-02   1.5978636994536732e-02   2.6728793837443206e-02   2.5780093873287349e-02   1.0000000000015814e-02   1.4691969849713059e-02   1.0000000000000000e-02   1.0000000000084167e-02   4.6511420695595850e-02   4.5588506355954093e-02   1.2104921876473390e-02   1.9040946992076792e-02   1.0000000000000000e-02   2.0018962447134695e-02   4.1493329550925752e-02   4.3508884568929929e-02   5.1809261404776832e-02   6.1184618787987650e-02   7.0321189036590501e-02   8.2335262524740591e-02   9.4324555499747553e-02   1.0516853675780130e-01   1.1102892642228306e-01   1.0523138592323081e-01   6.9238666811382729e-02   1.3999324696930515e-01   7.0722633539348156e-01   3.3442480063937768e-01   3.2072068680401100e-01   1.0000000000000000e-02   7.6520652763557413e+00   1.5320758230943849e-02   2.7733826763213194e-02   1.1178500551431630e-02   2.0510211661765063e-02   1.1927367077773110e-02   1.0000000000003825e-02   1.0233371470931594e-02   2.0589189055266362e-02   1.0000000000000000e-02   2.0033021039749764e-02   2.0119012017026549e-02   2.1236462351917972e-02   2.5528597940211901e-02   3.2902663976923284e-02   4.0766134535036490e-02   4.8091541781845451e-02   5.4562928239998733e-02   6.0914397574236272e-02   6.6856519727794453e-02   7.1528400643826942e-02   7.3341378047825007e-02   6.7227705671714710e-02   3.7063309466370514e-02   1.1611976293806353e-01   1.8854372754204746e-01   2.1088466748741294e-01   4.2917873705476950e-01   2.6916273460840062e-01   3.0131236964253166e-01   1.2809626474283343e-02   7.3752483690280286e+00   2.9606346268967704e-02   2.0466226181435846e-02   1.0000000000017091e-02   1.0000000000027709e-02   1.4560807277502969e-02   1.6211159065040757e-02   1.0000000000000628e-02   1.0000000000028576e-02   4.2971149116476215e-01   2.2552822619719495e-02   2.2142157263470168e-02   2.5441412563515054e-02   3.0554634586624441e-02   3.6895262949546655e-02   4.3766667408894795e-02   5.0233408575585385e-02   5.5970867784967820e-02   6.0681374727545166e-02   6.3666742869751380e-02   6.3348881723267983e-02   5.5175093782432259e-02   2.7442868937593443e-02   6.5144596130830915e-02   1.6389832405408664e-01   3.4365752435881952e-01   5.1405531582427832e-01   2.2389682539337610e-02   4.9383878110891927e-01   5.2240217148100587e-01   1.8775688731497715e-02   7.2480653310037217e+00   1.0000000000032525e-02   1.4490719251792831e-02   1.6507751067074423e-02   1.0000000000035597e-02   2.0181534575339739e-02   1.0000000000001018e-02   1.2041623323572890e-02   1.0062929876343127e-02   7.3593432318622851e-02   5.3620453738986461e-02   2.3248360403563706e-02   2.6958928416513431e-02   3.2513932226630717e-02   3.8921245140745388e-02   4.5478869529332611e-02   5.1735264480136642e-02   5.7257364449795178e-02   6.1529323048945261e-02   6.3773938403654126e-02   6.1723118599891297e-02   5.0807165458819692e-02   2.2559202875959417e-02   9.2225502672163284e-02   1.9587486607418872e-01   4.1779387195651052e-01   2.3234141826352469e-02   9.0258407267383722e-01   5.5370292147116495e-01   6.1624890066572557e-01   1.4287211337758343e+00   7.3928656701108713e+00   2.1040895399904027e-02   1.3670582525403331e-02   1.2564001478996417e-02   1.5192992769682268e-02   2.0410010503326786e-02   1.6336482562025814e-02   1.2074557497738333e-02   1.0000000000000835e-02   2.5743047114044758e-02   2.7488213526113903e-02   2.1391000703656966e-02   2.6178546801705681e-02   3.2872286769361977e-02   3.9454079171194104e-02   4.5938151813340398e-02   5.2606735807893393e-02   5.8698446216416927e-02   6.3981837608171555e-02   6.7626646570348545e-02   6.8505202053460071e-02   6.2762540929643174e-02   4.0810693651161675e-02   1.1110682252887015e-01   6.8523302703130229e-02   3.7927113940568319e-01   6.8788443463700666e-01   4.0552175060407158e-01   3.1117046859071112e-01   8.0716294390140575e-01   1.2240263360009855e-02   7.2304989940464690e+00   1.9630117671633626e-02   2.2324396273467172e-02   1.0000000000000000e-02   1.2147562525669927e-02   1.0000000000003818e-02   1.7822877019093020e-02   2.4162408951278167e-02   2.2885996897755015e-02   3.8424770465515590e-01   1.0490004208192528e-02   1.3109256350139960e-02   2.1006524510669342e-02   3.3771580071805724e-02   3.8874881797860292e-02   4.4413859622693584e-02   5.2343112872291472e-02   6.0184496719464575e-02   6.7059951960818862e-02   7.4139019885263030e-02   7.9853297856865901e-02   8.3798792451893325e-02   8.3120316404963007e-02   6.4553339024719741e-02   1.8387934666330309e-02   9.8166102348024364e-02   2.2223260170462994e-01   7.1126380710672843e-01   4.6325080772126875e-01   1.6850592459884059e-02   2.4521970794241375e-02   7.3640791214289356e+00   1.8217200699655489e-02   1.3687666698728904e-02   2.3862451617687672e-02   1.0039491396838166e-02   1.4861032223899699e-02   2.7946579703949717e-02   2.0415486413816630e-02   6.8060326289535747e-02   5.7042856393125740e-01   1.1580083099202015e-01   1.2641559075591424e-01   2.6249236481584332e-01   4.5959771401615210e-02   2.8359720489820099e-02   3.8718692472263380e-02   5.1488532924180437e-02   6.0909806377697773e-02   6.9518981739232447e-02   8.0201538691229202e-02   9.2636163554189063e-02   1.0491482964517518e-01   1.1666841385610197e-01   1.2495420708068226e-01   1.2446949710665396e-01   8.3012919842220534e-02   4.0039246776192770e-02   5.9876545367343825e-01   1.3687626912128820e-01   3.6679750327375854e-01   2.6686253953013248e-02   7.6381801442643757e+00   2.1606361947476862e-02   1.9889039150806212e-02   2.0841806113217610e-02   2.0034910827350583e-02   1.1661968888219494e-02   1.2570012382421808e-02   1.1082086561861555e-02   1.2766406218242323e-02   2.2952163268007733e-01   1.0988725429583857e-01   6.9112811354573755e-01   5.1236911311766675e-01   1.4582954976375117e-02   8.1923724438997217e-02   2.8652188897101982e-01   5.9406177703898139e-02   5.7016080247262652e-02   6.7943988062351343e-02   8.5310825021140124e-02   1.0245273143165193e-01   1.2376789092723432e-01   1.4724065610159157e-01   1.7034107394991013e-01   1.9015332095912235e-01   2.0345319920720867e-01   1.9087642790141549e-01   1.3598529738154350e-01   1.1928133187120689e-01   1.5730361822461496e-02   5.4158648343304439e-01   7.8440795827589920e+00   1.0000000000036808e-02   1.0521581339343826e-02   3.2851534568646895e-02   1.7446414503309103e-02   1.9258198669831344e-02   1.0000000000002148e-02   6.4468835387452697e-02   1.0000000000000000e-02   1.4834993000412758e-02   4.0801046106816513e-01   1.4326112040367087e-01   1.0105847277462682e-02   8.2876222602203967e-02   2.8410964558477975e-01   5.0693148967172896e-01   1.9731641958524733e-02   6.0790521558664407e-02   4.0239893548057037e-01   9.0979413539473919e-02   1.0613203480145901e-01   1.3535442058193659e-01   1.7016673038335725e-01   2.1161147717239262e-01   2.4892070137639025e-01   2.8642848911251051e-01   3.0711380324056170e-01   2.8640593252922203e-01   2.3481992371535321e-01   1.6022854408214639e-02   1.8576214352823962e-02   7.7263444509006396e+00   1.0376606172650307e-02   1.5661922366589878e-02   2.3200682684400703e-02   1.8123496197325884e-02   1.0000000000000000e-02   1.3869736906308078e-02   2.0459285917832436e-02   2.4476595580879505e-02   2.0447136902626659e-02   1.9510171074733223e-02   1.0452428839810910e-02   1.5791129360978335e-02   1.5343945907102178e-02   2.6864433724155215e-02   2.4958050018112833e-02   1.0355084110919035e-02   1.2513598265290499e-02   1.1482119085177810e-01   4.4571072408329415e-02   1.0183595906373508e-01   1.3149918799605470e-01   1.8533433925322254e-01   2.3983035368465760e-01   3.0324557955675668e-01   3.6558333069568794e-01   4.1704762202866263e-01   4.2564754594982163e-01   3.6730488551000873e-01   2.6639761321567029e-01   1.2116956620093324e-02   7.4309620115824249e+00   1.3795031757656907e-02   1.0000000000000000e-02   1.4834873111567162e-02   1.0000000000044491e-02   1.0000000000002620e-02   6.3881919851255381e-02   1.1000881797382867e-02   1.4272807353334097e-02   1.0000000000003012e-02   2.9795167336036512e-02   1.0155127763856332e-02   1.6897013342815830e-02   1.5321868250844108e-02   4.9987777926825343e-02   3.3175703928768965e-02   4.2984519345184220e-02   5.6166185762965504e-02   2.7598182860042942e-02   1.3792873626638405e-02   5.4098877116869046e-02   1.1574954889873681e-01   2.1347344958495890e-01   2.5186572631472581e-01   3.3990503819630502e-01   4.3263606507671809e-01   5.2206293730713649e-01   5.6814477850774803e-01   5.0714577232654001e-01   3.2021782357732081e-01   1.9115970756756064e-02   6.8195239325206556e+00   1.0000000000046980e-02   1.0740697939810877e-02   1.4186111067434958e-02   1.3023513088706515e-02   1.7310028851199050e-02   1.9980936243236679e-02   1.2244736187902491e-02   1.5137603538352220e-02   2.2243689932772974e-02   1.0365471727427975e-02   8.5617808811074003e-02   7.5403379963810288e-02   2.2156344570744094e-01   1.4303537365288560e-01   4.6870773123865166e-02   6.0649011918015673e-02   6.7942976434238175e-02   7.7616628748189975e-02   8.8937943263541930e-02   1.0462222789953703e-01   1.0000000000000000e-02   1.5619936179563848e-01   2.3769000782179656e-01   3.4907975936844321e-01   4.7818396564256666e-01   5.8902182490794819e-01   6.8229283477585112e-01   6.3974668737575524e-01   4.1421400856414586e-01   1.0000000000000000e-02   5.9176307738421574e+00   1.0000000000000000e-02   1.0175114070716080e-02   1.3662662353873270e-02   1.1557501947783072e-02   2.4978537473237722e-02   2.3344286357156494e-02   1.8557096913732325e-02   1.2001071626113361e-02   3.1356987013633875e-02   1.5448262302983500e-02   1.0000000000024699e-02   3.1530903694099541e-02   3.1126250894562942e-02   5.9470209300089547e-02   5.4863001006297776e-02   6.8227090805842161e-02   8.1392253098304293e-02   1.0082873756067764e-01   1.2459313907128997e-01   1.4830322008673832e-01   2.1256208296846951e-01   3.1632461217698568e-02   6.9834349400803755e-02   2.8695118695665400e-01   4.8422432297769058e-01   6.2841540502665560e-01   7.6634344372377872e-01   8.3183896112875699e-01   8.2930329923526525e-01   4.7397995099897378e-01   5.2977148486831540e+00   1.4051704340914406e-02   8.6041321699618006e-02   3.1449482738938085e-02   1.7622007143695859e-02   1.4358810870729538e-02   2.5000608049942512e-02   1.0000000000000000e-02   1.2305214570487557e-02   1.0843799045080829e-02   5.4020630263254300e-02   1.2288286155957274e-02   4.5514812788280068e-02   3.5623173731850824e-02   4.6268510536965929e-02   5.8680710157574999e-02   6.8614078714159615e-02   8.5765778439955753e-02   1.1150248933230862e-01   1.5029688587257997e-01   1.8086282473803306e-01   2.4376769697916717e-01   4.82719120443121