<?xml version="1.0"?>
<VTKFile type="UnstructuredGrid"  version="0.1"  >
<UnstructuredGrid>
<Piece  NumberOfPoints="1024" NumberOfCells="961">
<Points>
<DataArray  type="Float64"  NumberOfComponents="3"  format="ascii">0 0 0  0.03225806451612903 0 0  0.06451612903225806 0 0  0.09677419354838709 0 0  0.1290322580645161 0 0  0.1612903225806452 0 0  0.1935483870967742 0 0  0.2258064516129032 0 0  0.2580645161290323 0 0  0.2903225806451613 0 0  0.3225806451612903 0 0  0.3548387096774194 0 0  0.3870967741935484 0 0  0.4193548387096774 0 0  0.4516129032258064 0 0  0.4838709677419355 0 0  0.5161290322580645 0 0  0.5483870967741935 0 0  0.5806451612903225 0 0  0.6129032258064516 0 0  0.6451612903225806 0 0  0.6774193548387096 0 0  0.7096774193548387 0 0  0.7419354838709677 0 0  0.7741935483870968 0 0  0.8064516129032258 0 0  0.8387096774193548 0 0  0.8709677419354839 0 0  0.9032258064516129 0 0  0.9354838709677419 0 0  0.967741935483871 0 0  1 0 0  0 0.03225806451612903 0  0.03225806451612903 0.03225806451612903 0  0.06451612903225806 0.03225806451612903 0  0.09677419354838709 0.03225806451612903 0  0.1290322580645161 0.03225806451612903 0  0.1612903225806452 0.03225806451612903 0  0.1935483870967742 0.03225806451612903 0  0.2258064516129032 0.03225806451612903 0  0.2580645161290323 0.03225806451612903 0  0.2903225806451613 0.03225806451612903 0  0.3225806451612903 0.03225806451612903 0  0.3548387096774194 0.03225806451612903 0  0.3870967741935484 0.03225806451612903 0  0.4193548387096774 0.03225806451612903 0  0.4516129032258064 0.03225806451612903 0  0.4838709677419355 0.03225806451612903 0  0.5161290322580645 0.03225806451612903 0  0.5483870967741935 0.03225806451612903 0  0.5806451612903225 0.03225806451612903 0  0.6129032258064516 0.03225806451612903 0  0.6451612903225806 0.03225806451612903 0  0.6774193548387096 0.03225806451612903 0  0.7096774193548387 0.03225806451612903 0  0.7419354838709677 0.03225806451612903 0  0.7741935483870968 0.03225806451612903 0  0.8064516129032258 0.03225806451612903 0  0.8387096774193548 0.03225806451612903 0  0.8709677419354839 0.03225806451612903 0  0.9032258064516129 0.03225806451612903 0  0.9354838709677419 0.03225806451612903 0  0.967741935483871 0.03225806451612903 0  1 0.03225806451612903 0  0 0.06451612903225806 0  0.03225806451612903 0.06451612903225806 0  0.06451612903225806 0.06451612903225806 0  0.09677419354838709 0.06451612903225806 0  0.1290322580645161 0.06451612903225806 0  0.1612903225806452 0.06451612903225806 0  0.1935483870967742 0.06451612903225806 0  0.2258064516129032 0.06451612903225806 0  0.2580645161290323 0.06451612903225806 0  0.2903225806451613 0.06451612903225806 0  0.3225806451612903 0.06451612903225806 0  0.3548387096774194 0.06451612903225806 0  0.3870967741935484 0.06451612903225806 0  0.4193548387096774 0.06451612903225806 0  0.4516129032258064 0.06451612903225806 0  0.4838709677419355 0.06451612903225806 0  0.5161290322580645 0.06451612903225806 0  0.5483870967741935 0.06451612903225806 0  0.5806451612903225 0.06451612903225806 0  0.6129032258064516 0.06451612903225806 0  0.6451612903225806 0.06451612903225806 0  0.6774193548387096 0.06451612903225806 0  0.7096774193548387 0.06451612903225806 0  0.7419354838709677 0.06451612903225806 0  0.7741935483870968 0.06451612903225806 0  0.8064516129032258 0.06451612903225806 0  0.8387096774193548 0.06451612903225806 0  0.8709677419354839 0.06451612903225806 0  0.9032258064516129 0.06451612903225806 0  0.9354838709677419 0.06451612903225806 0  0.967741935483871 0.06451612903225806 0  1 0.06451612903225806 0  0 0.09677419354838709 0  0.03225806451612903 0.09677419354838709 0  0.06451612903225806 0.09677419354838709 0  0.09677419354838709 0.09677419354838709 0  0.1290322580645161 0.09677419354838709 0  0.1612903225806452 0.09677419354838709 0  0.1935483870967742 0.09677419354838709 0  0.2258064516129032 0.09677419354838709 0  0.2580645161290323 0.09677419354838709 0  0.2903225806451613 0.09677419354838709 0  0.3225806451612903 0.09677419354838709 0  0.3548387096774194 0.09677419354838709 0  0.3870967741935484 0.09677419354838709 0  0.4193548387096774 0.09677419354838709 0  0.4516129032258064 0.09677419354838709 0  0.4838709677419355 0.09677419354838709 0  0.5161290322580645 0.09677419354838709 0  0.5483870967741935 0.09677419354838709 0  0.5806451612903225 0.09677419354838709 0  0.6129032258064516 0.09677419354838709 0  0.6451612903225806 0.09677419354838709 0  0.6774193548387096 0.09677419354838709 0  0.7096774193548387 0.09677419354838709 0  0.7419354838709677 0.09677419354838709 0  0.7741935483870968 0.09677419354838709 0  0.8064516129032258 0.09677419354838709 0  0.8387096774193548 0.09677419354838709 0  0.8709677419354839 0.09677419354838709 0  0.9032258064516129 0.09677419354838709 0  0.9354838709677419 0.09677419354838709 0  0.967741935483871 0.09677419354838709 0  1 0.09677419354838709 0  0 0.1290322580645161 0  0.03225806451612903 0.1290322580645161 0  0.06451612903225806 0.1290322580645161 0  0.09677419354838709 0.1290322580645161 0  0.1290322580645161 0.1290322580645161 0  0.1612903225806452 0.1290322580645161 0  0.1935483870967742 0.1290322580645161 0  0.2258064516129032 0.1290322580645161 0  0.2580645161290323 0.1290322580645161 0  0.2903225806451613 0.1290322580645161 0  0.3225806451612903 0.1290322580645161 0  0.3548387096774194 0.1290322580645161 0  0.3870967741935484 0.1290322580645161 0  0.4193548387096774 0.1290322580645161 0  0.4516129032258064 0.1290322580645161 0  0.4838709677419355 0.1290322580645161 0  0.5161290322580645 0.1290322580645161 0  0.5483870967741935 0.1290322580645161 0  0.5806451612903225 0.1290322580645161 0  0.6129032258064516 0.1290322580645161 0  0.6451612903225806 0.1290322580645161 0  0.6774193548387096 0.1290322580645161 0  0.7096774193548387 0.1290322580645161 0  0.7419354838709677 0.1290322580645161 0  0.7741935483870968 0.1290322580645161 0  0.8064516129032258 0.1290322580645161 0  0.8387096774193548 0.1290322580645161 0  0.8709677419354839 0.1290322580645161 0  0.9032258064516129 0.1290322580645161 0  0.9354838709677419 0.1290322580645161 0  0.967741935483871 0.1290322580645161 0  1 0.1290322580645161 0  0 0.1612903225806452 0  0.03225806451612903 0.1612903225806452 0  0.06451612903225806 0.1612903225806452 0  0.09677419354838709 0.1612903225806452 0  0.1290322580645161 0.1612903225806452 0  0.1612903225806452 0.1612903225806452 0  0.1935483870967742 0.1612903225806452 0  0.2258064516129032 0.1612903225806452 0  0.2580645161290323 0.1612903225806452 0  0.2903225806451613 0.1612903225806452 0  0.3225806451612903 0.1612903225806452 0  0.3548387096774194 0.1612903225806452 0  0.3870967741935484 0.1612903225806452 0  0.4193548387096774 0.1612903225806452 0  0.4516129032258064 0.1612903225806452 0  0.4838709677419355 0.1612903225806452 0  0.5161290322580645 0.1612903225806452 0  0.5483870967741935 0.1612903225806452 0  0.5806451612903225 0.1612903225806452 0  0.6129032258064516 0.1612903225806452 0  0.6451612903225806 0.1612903225806452 0  0.6774193548387096 0.1612903225806452 0  0.7096774193548387 0.1612903225806452 0  0.7419354838709677 0.1612903225806452 0  0.7741935483870968 0.1612903225806452 0  0.8064516129032258 0.1612903225806452 0  0.8387096774193548 0.1612903225806452 0  0.8709677419354839 0.1612903225806452 0  0.9032258064516129 0.1612903225806452 0  0.9354838709677419 0.1612903225806452 0  0.967741935483871 0.1612903225806452 0  1 0.1612903225806452 0  0 0.1935483870967742 0  0.03225806451612903 0.1935483870967742 0  0.06451612903225806 0.1935483870967742 0  0.09677419354838709 0.1935483870967742 0  0.1290322580645161 0.1935483870967742 0  0.1612903225806452 0.1935483870967742 0  0.1935483870967742 0.1935483870967742 0  0.2258064516129032 0.1935483870967742 0  0.2580645161290323 0.1935483870967742 0  0.2903225806451613 0.1935483870967742 0  0.3225806451612903 0.1935483870967742 0  0.3548387096774194 0.1935483870967742 0  0.3870967741935484 0.1935483870967742 0  0.4193548387096774 0.1935483870967742 0  0.4516129032258064 0.1935483870967742 0  0.4838709677419355 0.1935483870967742 0  0.5161290322580645 0.1935483870967742 0  0.5483870967741935 0.1935483870967742 0  0.5806451612903225 0.1935483870967742 0  0.6129032258064516 0.1935483870967742 0  0.6451612903225806 0.1935483870967742 0  0.6774193548387096 0.1935483870967742 0  0.7096774193548387 0.1935483870967742 0  0.7419354838709677 0.1935483870967742 0  0.7741935483870968 0.1935483870967742 0  0.8064516129032258 0.1935483870967742 0  0.8387096774193548 0.1935483870967742 0  0.8709677419354839 0.1935483870967742 0  0.9032258064516129 0.1935483870967742 0  0.9354838709677419 0.1935483870967742 0  0.967741935483871 0.1935483870967742 0  1 0.1935483870967742 0  0 0.2258064516129032 0  0.03225806451612903 0.2258064516129032 0  0.06451612903225806 0.2258064516129032 0  0.09677419354838709 0.2258064516129032 0  0.1290322580645161 0.2258064516129032 0  0.1612903225806452 0.2258064516129032 0  0.1935483870967742 0.2258064516129032 0  0.2258064516129032 0.2258064516129032 0  0.2580645161290323 0.2258064516129032 0  0.2903225806451613 0.2258064516129032 0  0.3225806451612903 0.2258064516129032 0  0.3548387096774194 0.2258064516129032 0  0.3870967741935484 0.2258064516129032 0  0.4193548387096774 0.2258064516129032 0  0.4516129032258064 0.2258064516129032 0  0.4838709677419355 0.2258064516129032 0  0.5161290322580645 0.2258064516129032 0  0.5483870967741935 0.2258064516129032 0  0.5806451612903225 0.2258064516129032 0  0.6129032258064516 0.2258064516129032 0  0.6451612903225806 0.2258064516129032 0  0.6774193548387096 0.2258064516129032 0  0.7096774193548387 0.2258064516129032 0  0.7419354838709677 0.2258064516129032 0  0.7741935483870968 0.2258064516129032 0  0.8064516129032258 0.2258064516129032 0  0.8387096774193548 0.2258064516129032 0  0.8709677419354839 0.2258064516129032 0  0.9032258064516129 0.2258064516129032 0  0.9354838709677419 0.2258064516129032 0  0.967741935483871 0.2258064516129032 0  1 0.225806451
[...]
<PointData  Scalars="f_39"> 
<DataArray  type="Float64"  Name="f_39"  format="ascii">0.0000000000000000e+00  0.0000000000000000e+00  0.0000000000000000e+00  0.0000000000000000e+00  0.0000000000000000e+00  0.0000000000000000e+00  0.0000000000000000e+00  0.0000000000000000e+00  0.0000000000000000e+00  0.0000000000000000e+00  0.0000000000000000e+00  0.0000000000000000e+00  0.0000000000000000e+00  0.0000000000000000e+00  0.0000000000000000e+00  0.0000000000000000e+00  0.0000000000000000e+00  0.0000000000000000e+00  0.0000000000000000e+00  0.0000000000000000e+00  0.0000000000000000e+00  0.0000000000000000e+00  0.0000000000000000e+00  0.0000000000000000e+00  0.0000000000000000e+00  0.0000000000000000e+00  0.0000000000000000e+00  0.0000000000000000e+00  0.0000000000000000e+00  0.0000000000000000e+00  0.0000000000000000e+00  0.0000000000000000e+00  0.0000000000000000e+00  -2.7573570224807397e-05  -8.3087026797116527e-05  -2.2229301076631008e-04  -5.1497833428164330e-04  -7.7783760838015428e-04  -9.2786155861675581e-04  -1.0601873470868857e-03  -1.1444639455513333e-03  -9.3404424900579632e-04  3.1322978001775399e-05  9.8863904434556642e-04  7.6505275698709346e-04  8.8605772920640329e-05  -2.2403156777828435e-04  -3.0320539781986827e-04  -8.3973528819584507e-05  1.0812184459431430e-04  -1.0981209658831338e-04  -1.4201049176767918e-04  -6.2358120597783375e-05  -8.1776353030735475e-05  -1.6629060780128017e-05  -6.1564687105771281e-06  5.0671198761252565e-06  9.7292281146974360e-06  6.5099591783626337e-06  -1.0752569067767111e-05  -3.4527879200984358e-05  -2.9863893228220137e-05  -3.1855205147328926e-05  -1.0203970417992842e-05  0.0000000000000000e+00  -6.5504158794330687e-05  -3.0914791238763535e-04  -9.5680826295136659e-04  -1.9818631976342405e-03  -2.9478539982261205e-03  -3.7076650140982553e-03  -4.1500259702815703e-03  -4.1456205157343494e-03  -3.5007325208972467e-03  -1.3915227907118398e-03  5.7538466585055218e-04  6.6801693941272362e-04  -3.4552035171531105e-04  -1.1867292174265543e-03  -1.2983542563074575e-03  -1.2559502438231271e-03  -1.2385569616703612e-03  -1.2573190042449631e-03  -1.0209265582463505e-03  -6.7284162919409188e-04  -3.7625738840476821e-04  -9.7036207330676862e-05  6.1632590648190814e-06  4.0049593358639656e-05  5.0040275263407305e-05  3.7063294760622913e-05  -2.6498338561510176e-05  -1.1454758705566471e-04  -1.7083973829026152e-04  -1.9986382443293221e-04  -1.3567343999876878e-04  0.0000000000000000e+00  -4.5817576902677578e-05  -7.2476493523045008e-04  -2.2276568952602827e-03  -4.0198358329130227e-03  -5.8051253053598602e-03  -7.4996954819041683e-03  -8.5148203515048836e-03  -8.5109902549576795e-03  -7.7361779973305258e-03  -5.7370719722008266e-03  -3.7051088698969586e-03  -2.3075310113851470e-03  -2.4541226972780378e-03  -3.3125540973618518e-03  -3.0453744161664377e-03  -3.0687960968096145e-03  -3.1677584981100260e-03  -2.6873191711907847e-03  -1.9552042581864964e-03  -1.2346794859794629e-03  -5.7402557955244632e-04  -7.9825789453202004e-05  1.5084737169941275e-04  1.6099302093309129e-04  1.5092561614372059e-04  1.2781942848846893e-04  -2.3653764413863861e-05  -2.2157203168699917e-04  -4.1441277469979923e-04  -5.3755241375024864e-04  -5.1170294489170638e-04  0.0000000000000000e+00  -1.6934685610364578e-04  -1.3651114214468826e-03  -3.6446077551197543e-03  -6.1904101286440801e-03  -8.7420980257990732e-03  -1.1271762799821882e-02  -1.2831718613950929e-02  -1.3187906216655165e-02  -1.2707051683398262e-02  -1.1098288637622508e-02  -8.9347567507547781e-03  -6.8927342590457200e-03  -6.2915203497329979e-03  -6.2247148229215678e-03  -5.2569904399499424e-03  -4.4552195009134477e-03  -3.8736271152435106e-03  -3.0720999886293403e-03  -2.0470454723820015e-03  -1.0587322888355039e-03  -2.6717388145687082e-04  3.1508692093279466e-04  5.3310700784025601e-04  5.0521889646043604e-04  4.6359992231383173e-04  3.1719364634615803e-04  5.4942042904470521e-07  -3.7003941164485553e-04  -7.3600781220786119e-04  -1.0276655407644181e-03  -1.1561472094654844e-03  0.0000000000000000e+00  -5.0675118586022137e-04  -2.0452514270333112e-03  -4.6907658263780141e-03  -8.0655821125082666e-03  -1.1350883909343653e-02  -1.4405437014157443e-02  -1.6863097154621778e-02  -1.7679443803779962e-02  -1.6642035899320135e-02  -1.4708687652852838e-02  -1.2358494883642634e-02  -1.0514422558508398e-02  -9.4674070941884354e-03  -8.1752083455388144e-03  -6.6056628998006515e-03  -5.1360692054337577e-03  -3.8895685695249679e-03  -2.6736994362281195e-03  -1.4641504567251870e-03  -3.4213037212905669e-04  5.9984655346106356e-04  1.1833111687436558e-03  1.3319337304772817e-03  1.2554335080604772e-03  1.0268182963489448e-03  5.9183025469272687e-04  3.0102425460218750e-05  -5.8001568701385609e-04  -1.1809015090254418e-03  -1.6981657314924475e-03  -2.0450541037297038e-03  0.0000000000000000e+00  -5.5910044440526745e-04  -2.2682512001616409e-03  -5.0772551685246796e-03  -8.6927273761637953e-03  -1.2714770512146317e-02  -1.6414473671113500e-02  -1.9620750077821349e-02  -2.0601346806180278e-02  -1.9076841145643966e-02  -1.6666139860607283e-02  -1.3754821994552817e-02  -1.1676368785294999e-02  -1.0138250113244299e-02  -8.2160677627899671e-03  -6.2545092580060680e-03  -4.5034927273111952e-03  -2.9278691704155689e-03  -1.4586677965614900e-03  -1.0215920818354608e-04  1.1359000176213991e-03  2.0576911346365783e-03  2.6296290426953621e-03  2.7130763101864512e-03  2.2819978124284795e-03  1.6512058829145917e-03  8.7870319399368461e-04  2.6335208320355592e-05  -8.6882931283869093e-04  -1.7657700406576381e-03  -2.5592887944838327e-03  -3.1713802185347343e-03  0.0000000000000000e+00  -3.4620290811780279e-04  -1.9488500479500188e-03  -4.7491563323508153e-03  -8.0560353828864929e-03  -1.1948605192539961e-02  -1.6408051384990255e-02  -2.0206368792756776e-02  -2.1065590740992256e-02  -2.0173528488687309e-02  -1.7698244725590642e-02  -1.3775579383266495e-02  -1.0997008007957935e-02  -8.8393438416642170e-03  -6.5910487081348133e-03  -4.4313493639275663e-03  -2.5379368998192384e-03  -8.5838276970419381e-04  7.3298529002310418e-04  2.1358267641467654e-03  3.3597932526655896e-03  4.4272685779013048e-03  4.7346109028648491e-03  4.1736350323871331e-03  3.2615960114131715e-03  2.2132289097454524e-03  1.0979121395138505e-03  -5.8522059873829805e-05  -1.2403618314287034e-03  -2.4785873056717622e-03  -3.5929274289818033e-03  -4.4909156779147745e-03  0.0000000000000000e+00  -2.4802330771764753e-04  -1.3956205810732151e-03  -3.5546797080843432e-03  -6.1839094023847518e-03  -9.0925941948718329e-03  -1.3360758271711980e-02  -1.6921409008508762e-02  -1.8679367442006233e-02  -1.9251630528399441e-02  -1.6277651073218588e-02  -1.2043822747982661e-02  -8.6577567126316351e-03  -5.6038136788683279e-03  -3.1838307865079424e-03  -1.0656232421530284e-03  7.3608819327861509e-04  2.4096444560855971e-03  4.0203963137009956e-03  5.7026499303752011e-03  6.8140294471341831e-03  7.1313824975493129e-03  6.6518878191765673e-03  5.4177919907774548e-03  4.0932050938341314e-03  2.6676865813046670e-03  1.2073599927435081e-03  -2.5745447890302087e-04  -1.7226565527857125e-03  -3.2990905827499162e-03  -4.7319624758727172e-03  -5.9096878178309118e-03  0.0000000000000000e+00  -1.0203602679033123e-04  -5.2104333938777570e-04  -1.3566904333028337e-03  -2.5731470245862562e-03  -4.2917874320507919e-03  -6.8265622325131177e-03  -9.2348217827876132e-03  -1.1706654116882311e-02  -1.2170976952480440e-02  -9.0146183005715644e-03  -5.6553600079936933e-03  -2.5504629333682905e-03  4.1297631932363786e-04  2.4813596113133171e-03  4.1155325339390925e-03  5.4624196665519660e-03  6.9485635521690714e-03  8.7821222898624238e-03  1.0259311078974907e-02  1.0455068722035211e-02  9.5006262549294854e-03  8.1412936755464183e-03  6.5386808170867375e-03  4.7732296451831833e-03  2.9785252422267726e-03  1.1871081204552750e-03  -5.9618439102901368e-04  -2.3653834148727043e-03  -4.2158450488719700e-03  -5.8926632071458684e-03  -7.3310195182227818e-03  0.0000000000000000e+00  1.6123825377292430e-04  6.9341377293391363e-04  1.4658151696083708e-03  2.1592622231671756e-03  2.5782773215996565e-03  2.5929500922331978e-03  1.6987503110339752e-03  3.1131593347320493e-04  6.7398383784358115e-04  2.7511594577852780e-03  4.9515711477393955e-03  7.0275318561452589e-03  8.8488354756481452e-03  1.0203380777868535e-02  1.1142480319518474e-02  1.1889885620249643e-02  1.3034834550701629e-02  1.4325353210837256e-02  1.4398902388547290e-02  1.3287876477924957e-02  1.1600671369188895e-02  9.5618206189963841e-03  7.4082010650403530e-03  5.2349970348798455e-03  3.0923981958658935e-03  9.9792156519092653e-04  -1.0754848417521849e-03  -3.2549925638982284e-03  -5.2971947669271154e-03  -7.0064034159075302e-03  -8.6824149214909593e-03  0.0000000000000000e+00  5.5352097942845224e-04  2.1062870657585784e-03  4.4768903236988497e-03  7.3600584236755600e-03  1.0527804551926909e-02  1.3504053289926373e-02  1.4978166149644881e-02  1.4695344904929065e-02  1.4348983056963256e-02  1.5061243454424509e-02  1.6294396169234504e-02  1.7390767374071900e-02  1.8203866394031397e-02  1.8754732453237295e-02  1.9105714923663020e-02  1.9265378029950403e-02  1.9478162063461663e-02  1.9152571514239092e-02  1.7799396292649802e-02  1.5773613312091206e-02  1.3271206102313303e-02  1.0591237244510346e-02  7.9209213411794883e-03  5.3585574361931562e-03  2.9208521994254460e-03  5.7600454783889032e-04  -1.7688578637598822e-03  -4.1492824799432039e-03  -6.2278844119101479e-03  -8.0185176360379300e-03  -9.9062629765466134e-03  0.0000000000000000e+00  9.4994743754914083e-04  3.4953627775462957e-03  7.3670803226454726e-03  1.2525427736797282e-02  1.8336918523910440e-02  2.4400887819155059e-02  2.7789328101083616e-02  2.7151537868318375e-02  2.6180873316350696e-02  2.6959927247780423e-02  2.7919691981669485e-02  2.7936470092622047e-02  2.7737770344652649e-02  2.7422698265514439e-02  2.6835110331983620e-02  2.5935852048159860e-02  2.4715251380075121e-02  2.3002247623358583e-02  2.0642990353539996e-02  1.7689803671241497e-02  1.4370658411177253e-02  1.1001753866409055e-02  7.8527485167274105e-03  4.9722094183196142e-03  2.3373256884207591e-03  -1.0255812545655833e-04  -2.5164717695099728e-03  -4.8200768949055381e-03  -6.8975948108989035e-03  -8.8847593295378266e-03  -1.0954495326469985e-02  0.0000000000000000e+00  1.1790838762954785e-03  4.2144553250450887e-03  9.2921930390084343e-03  1.6559200930467699e-02  2.4964723845494523e-02  3.3160653982990326e-02  3.7000048869037835e-02  3.5975188371069097e-02  3.5342180094831720e-02  3.6679805295304131e-02  3.7526445740300382e-02  3.6916198915715709e-02  3.5843626344837974e-02  3.4552305591627204e-02  3.2882000563233871e-02  3.0878942172603424e-02  2.8609368804418431e-02  2.5955258868650986e-02  2.2738213211681006e-02  1.8905767325897941e-02  1.4680171740707194e-02  1.0395866157240984e-02  6.8282346918553056e-03  4.0751853542763420e-03  1.5258575954535034e-03  -8.4890923840562457e-04  -3.1641410894709147e-03  -5.4156592665804250e-03  -7.5029657888775331e-03  -9.5685909366463040e-03  -1.1785215873386870e-02  0.0000000000000000e+00  1.1973999377048131e-03  4.1209992246994086e-03  9.9650373735139935e-03  1.8843566612259353e-02  2.8552862137041939e-02  3.7733397798421602e-02  4.1935962688053260e-02  4.1072453413700340e-02  4.0835654145427960e-02  4.2189947100282690e-02  4.2925744582857112e-02  4.2279901564541256e-02  4.0753108241896603e-02  3.8771970464867550e-02  3.6489629373202027e-02  3.3953076470775743e-02  3.1125700886242575e-02  2.7893247440444777e-02  2.4068973141295184e-02  1.9433322601666844e-02  1.3863945015969048e-02  8.7351445576188888e-03  5.4891361815065575e-03  3.2155617250889108e-03  9.0679710383811723e-04  -1.4410313588770897e-03  -3.7002514711355766e-03  -5.8374108668569364e-03  -7.9178826383424425e-03  -1.0040798586391900e-02  -1.2361683925787334e-02  0.0000000000000000e+00  9.1660497368691875e-04  4.1779191772762757e-03  1.0742954405837044e-02  1.9840540144933781e-02  2.9766290878763701e-02  3.8576678384679403e-02  4.3163846704191336e-02  4.2915091682012484e-02  4.2202081342074267e-02  4.3632408940739234e-02  4.4704204218892443e-02  4.4107616146703020e-02  4.2558040750860844e-02  4.0458889777400323e-02  3.8018779467731918e-02  3.5299907198630055e-02  3.2265157595297710e-02  2.8792455894174694e-02  2.4681905626866101e-02  1.9601650290124329e-02  1.2757311203771242e-02  7.3801454767619670e-03  4.9169444022993556e-03  2.7328321145478522e-03  5.2101459493515548e-04  -1.7394741610260449e-03  -3.9149040021492802e-03  -6.0138770974130350e-03  -8.1176092848099114e-03  -1.0281123817040985e-02  -1.2655849672861472e-02  0.0000000000000000e+00  8.1746339392622827e-04  4.4762999519923144e-03  1.1414902688595765e-02  2.0014186321748464e-02  2.9248190878026353e-02  3.6949851706532838e-02  4.1015619610086346e-02  4.1509922673803899e-02  4.1154562958586063e-02  4.2298109215995354e-02  4.3297926311453488e-02  4.2965548927513621e-02  4.1745847468070002e-02  3.9908167583304913e-02  3.7637494810019968e-02  3.5037416257024584e-02  3.2078459291834616e-02  2.8665226871365568e-02  2.4631281255306614e-02  1.9699053271574278e-02  1.3363198822941773e-02  8.1237191842274056e-03  4.9214201826118771e-03  2.3695554688749091e-03  3.3668255967552959e-04  -1.7607931206074809e-03  -3.9133446082374231e-03  -6.0448563476775546e-03  -8.1196368303037610e-03  -1.0282654142376798e-02  -1.2655829761167445e-02  0.0000000000000000e+00  1.1529569794402022e-03  4.6923630063203815e-03  1.1219870153914834e-02  1.9692602398554228e-02  2.7282957247231926e-02  3.2992240565760292e-02  3.6043716327519015e-02  3.6601723742237274e-02  3.6783652122033828e-02  3.7588558998655687e-02  3.8493900821848941e-02  3.8961531283826574e-02  3.8565568933260290e-02  3.7249722580289878e-02  3.5463927979657403e-02  3.3250174403214677e-02  3.0619090007746760e-02  2.7526414863367574e-02  2.3886970781774586e-02  1.9584362243949969e-02  1.4732415905209817e-02  9.9516746965370891e-03  5.3196813346431948e-03  2.1373946264134839e-03  3.8845225716228123e-04  -1.5915689680967564e-03  -3.7386911807960705e-03  -5.9614905939857979e-03  -8.0145580932557241e-03  -1.0045201452585233e-02  -1.2361384007302807e-02  0.0000000000000000e+00  1.1659526225676884e-03  4.7063800816223673e-03  1.0694493122445064e-02  1.8078798422322233e-02  2.4077830893743636e-02  2.7886476016743846e-02  2.9658814959979497e-02  2.9742382180438669e-02  2.9785516731042943e-02  3.0347302197087013e-02  3.1246458551756520e-02  3.2368230511116355e-02  3.2985448501737902e-02  3.2557554335691359e-02  3.1555940267810827e-02  3.0019975649322315e-02  2.7926325820457974e-02  2.5392480875246905e-02  2.2373873382615563e-02  1.8868369914860003e-02  1.4986490818304847e-02  1.0917071133207149e-02  6.5802087117210412e-03  3.2068747576153448e-03  9.6965085529308415e-04  -1.1602150493340852e-03  -3.3147936170295871e-03  -5.5950595818014502e-03  -7.6201021250302692e-03  -9.5751081316362216e-03  -1.1784047662926199e-02  0.0000000000000000e+00  1.0129562325893330e-03  4.2891917986611246e-03  9.3109503916623641e-03  1.5030439992853761e-02  1.9995633683560665e-02  2.2895578758970372e-02  2.3180184072202667e-02  2.2378440354840601e-02  2.2249177158835690e-02  2.2573639098926748e-02  2.3294629412878295e-02  2.4405308140807755e-02  2.5435674242474428e-02  2.5829407544629202e-02  2.5820375674537609e-02  2.5380827917445357e-02  2.4089698595212233e-02  2.2262944053271453e-02  2.0085314196586851e-02  1.7389855853472452e-02  1.4296867159780775e-02  1.0971938607379945e-02  7.6926023906326909e-03  4.7104698708361273e-03  2.0162925824618941e-03  -3.1558696582247904e-04  -2.5886788572525828e-03  -4.9779150124906702e-03  -7.0234423295237412e-03  -8.8922088238837828e-03  -1.0951806635154899e-02  0.0000000000000000e+00  7.6769064377773947e-04  3.2765807164787291e-03  6.9716012537183007e-03  1.1054124943292424e-02  1.4817289139783201e-02  1.6434986035203623e-02  1.5594974821653066e-02  1.4502782871510658e-02  1.4219668012210177e-02  1.4405007928426888e-02  1.5005180843995790e-02  1.6011152550168599e-02  1.7125733720947226e-02  1.8122262214695799e-02  1.9095337710209999e-02  1.9596271032794779e-02  1.9123775964667990e-02  1.8257821844697673e-02  1.7110192512507130e-02  1.5267441279844612e-02  1.2940191526072429e-02  1.0356278525775418e-02  7.7106438282365493e-03  5.1502145686345216e-03  2.7528700692238564e-03  5.1615066090570836e-04  -1.7289601407422435e-03  -4.1356929025960047e-03  -6.2547359259165630e-03  -8.0254654224950622e-03  -9.9014264734322479e-03  0.0000000000000000e+00  4.3305429864786435e-04  2.0273062655291052e-03  4.3427901688186093e-03  6.5410409526566260e-03  8.3007375477125184e-03  8.6441366045526789e-03  7.5048153569200774e-03  6.2773177468131540e-03  5.7465344098429488e-03  5.8200316546958078e-03  6.3089662266288763e-03  7.2439908429910056e-03  8.6971917713010282e-03  1.0475809026888635e-02  1.2320326824329535e-02  1.3296682384469745e-02  1.3423270913802863e-02  1.3769347001074616e-02  1.3664870029584704e-02  1.2645156426051539e-02  1.1094749325617839e-02  9.1812691077567659e-03  7.1192141980111747e-03  5.0203772158950513e-03  2.9524382817561106e-03  9.3479762370132498e-04  -1.0719647530353055e-03  -3.1475044004169415e-03  -5.2116523060165842e-03  -7.0117732237087640e-03  -8.6752269048682683e-03  0.0000000000000000e+00  2.1196620916400581e-04  8.8807453310311361e-04  1.7571733723372061e-03  2.3852050220096619e-03  2.5365552327602215e-03  1.6910815929000785e-03  -1.5226501046061193e-04  -2.2776997499427271e-03  -3.2130226315654040e-03  -3.6222347348132860e-03  -3.2287119420315266e-03  -1.3333870013274554e-03  8.4659268682340128e-04  2.9967610774145237e-03  5.0379659268450757e-03  6.5781408900681057e-03  7.2983802454847369e-03  8.4896168005572821e-03  9.6905994524736395e-03  9.6947010081912220e-03  8.8498019024804593e-03  7.6199365479492649e-03  6.1627089023095277e-03  4.5339863298615299e-03  2.8334721423516973e-03  1.1145635287561188e-03  -6.0720845366980488e-04  -2.3435132714260750e-03  -4.2078095790674779e-03  -5.8960965225718434e-03  -7.3218604485438248e-03  0.0000000000000000e+00  -8.4670586330875522e-05  -1.5366745070821252e-04  -2.9517165034126879e-04  -7.8249773133310968e-04  -1.7981206738468705e-03  -3.9489850766590076e-03  -6.7489082504927338e-03  -9.4098307477929830e-03  -1.1118841050625564e-02  -1.1803618784601601e-02  -1.0862525918919116e-02  -8.1508186151857710e-03  -5.3523999912673623e-03  -3.1981877774409657e-03  -1.3386350287926648e-03  5.5895512635316196e-04  1.9602229971379423e-03  3.5306978941104955e-03  5.3374398920176648e-03  6.2896010826754885e-03  6.3300699970065483e-03  5.8628012548191553e-03  5.0119103843866697e-03  3.8522764612523280e-03  2.5256799749061322e-03  1.1315003492489214e-03  -2.8873399522882421e-04  -1.7299005540816748e-03  -3.3030494950613736e-03  -4.7334754359689216e-03  -5.8992956447687659e-03  0.0000000000000000e+00  -2.3942408824588710e-04  -8.0906687338503714e-04  -1.6028109852512698e-03  -2.7354234892892591e-03  -4.6102115477927950e-03  -7.6317585077794493e-03  -1.1397200311594659e-02  -1.4275270754061079e-02  -1.6985193017071614e-02  -1.8682553396879069e-02  -1.6804844772791788e-02  -1.3364075461489676e-02  -1.0224461069841335e-02  -7.7072366938905849e-03  -5.5970567323542740e-03  -3.5458824782808812e-03  -1.6554733542163986e-03  1.3912601285028415e-04  1.7536638765804384e-03  3.0372966268812853e-03  3.7499467298568738e-03  4.0464279245122324e-03  3.8434858812688398e-03  3.0638478325162679e-03  2.0969923358896947e-03  1.0311036291622668e-03  -9.3031101758953380e-05  -1.2552731904442948e-03  -2.4850406978233078e-03  -3.5927755153189033e-03  -4.4802347414635655e-03  0.0000000000000000e+00  -3.1383004094045401e-04  -1.0762545671518088e-03  -2.1531418641668699e-03  -3.6936732346793755e-03  -5.9890364506697590e-03  -9.5333100599743412e-03  -1.3889520774649441e-02  -1.7357661950580638e-02  -1.9995616824597561e-02  -2.2599105211031395e-02  -2.1149905818640027e-02  -1.6907056521762363e-02  -1.3703556486303118e-02  -1.0763876406437107e-02  -8.29882126540