<?xml version="1.0"?>
<VTKFile type="UnstructuredGrid"  version="0.1"  >
<UnstructuredGrid>
<Piece  NumberOfPoints="66" NumberOfCells="100">
<Points>
<DataArray  type="Float64"  NumberOfComponents="3"  format="ascii">25 25 25  25 21.0891 24.6922  20 25 25  25 17.2746 23.7764  20 21.0891 24.6922  15 25 25  25 13.6502 22.2752  20 17.2746 23.7764  15 21.0891 24.6922  10 25 25  25 10.3054 20.2254  20 13.6502 22.2752  15 17.2746 23.7764  10 21.0891 24.6922  5 25 25  25 7.3223 17.6777  20 10.3054 20.2254  15 13.6502 22.2752  10 17.2746 23.7764  5 21.0891 24.6922  0 25 25  25 4.7746 14.6946  20 7.3223 17.6777  15 10.3054 20.2254  10 13.6502 22.2752  5 17.2746 23.7764  0 21.0891 24.6922  25 2.7248 11.3498  20 4.7746 14.6946  15 7.3223 17.6777  10 10.3054 20.2254  5 13.6502 22.2752  0 17.2746 23.7764  25 1.2236 7.7254  20 2.7248 11.3498  15 4.7746 14.6946  10 7.3223 17.6777  5 10.3054 20.2254  0 13.6502 22.2752  25 0.3078 3.9109  20 1.2236 7.7254  15 2.7248 11.3498  10 4.7746 14.6946  5 7.3223 17.6777  0 10.3054 20.2254  25 0 0  20 0.3078 3.9109  15 1.2236 7.7254  10 2.7248 11.3498  5 4.7746 14.6946  0 7.3223 17.6777  20 0 0  15 0.3078 3.9109  10 1.2236 7.7254  5 2.7248 11.3498  0 4.7746 14.6946  15 0 0  10 0.3078 3.9109  5 1.2236 7.7254  0 2.7248 11.3498  10 0 0  5 0.3078 3.9109  0 1.2236 7.7254  5 0 0  0 0.3078 3.9109  0 0 0  </DataArray>
</Points>
<Cells>
<DataArray  type="UInt32"  Name="connectivity"  format="ascii">63 64 65  61 63 64  60 61 63  57 60 61  56 57 60  52 56 57  51 52 56  46 51 52  45 46 51  39 45 46  61 62 64  58 61 62  57 58 61  53 57 58  52 53 57  47 52 53  46 47 52  40 46 47  39 40 46  33 39 40  58 59 62  54 58 59  53 54 58  48 53 54  47 48 53  41 47 48  40 41 47  34 40 41  33 34 40  27 33 34  54 55 59  49 54 55  48 49 54  42 48 49  41 42 48  35 41 42  34 35 41  28 34 35  27 28 34  21 27 28  49 50 55  43 49 50  42 43 49  36 42 43  35 36 42  29 35 36  28 29 35  22 28 29  21 22 28  15 21 22  43 44 50  37 43 44  36 37 43  30 36 37  29 30 36  23 29 30  22 23 29  16 22 23  15 16 22  10 15 16  37 38 44  31 37 38  30 31 37  24 30 31  23 24 30  17 23 24  16 17 23  11 16 17  10 11 16  6 10 11  31 32 38  25 31 32  24 25 31  18 24 25  17 18 24  12 17 18  11 12 17  7 11 12  6 7 11  3 6 7  25 26 32  19 25 26  18 19 25  13 18 19  12 13 18  8 12 13  7 8 12  4 7 8  3 4 7  1 3 4  19 20 26  14 19 20  13 14 19  9 13 14  8 9 13  5 8 9  4 5 8  2 4 5  1 2 4  0 1 2  </DataArray>
<DataArray  type="UInt32"  Name="offsets"  format="ascii">3 6 9 12 15 18 21 24 27 30 33 36 39 42 45 48 51 54 57 60 63 66 69 72 75 78 81 84 87 90 93 96 99 102 105 108 111 114 117 120 123 126 129 132 135 138 141 144 147 150 153 156 159 162 165 168 171 174 177 180 183 186 189 192 195 198 201 204 207 210 213 216 219 222 225 228 231 234 237 240 243 246 249 252 255 258 261 264 267 270 273 276 279 282 285 288 291 294 297 300 </DataArray>
<DataArray  type="UInt8"  Name="types"  format="ascii">5 5 5 5 5 5 5 5 5 5 5 5 5 5 5 5 5 5 5 5 5 5 5 5 5 5 5 5 5 5 5 5 5 5 5 5 5 5 5 5 5 5 5 5 5 5 5 5 5 5 5 5 5 5 5 5 5 5 5 5 5 5 5 5 5 5 5 5 5 5 5 5 5 5 5 5 5 5 5 5 5 5 5 5 5 5 5 5 5 5 5 5 5 5 5 5 5 5 5 5 </DataArray>
</Cells>
<PointData  Vectors="t"> 
<DataArray  type="Float64"  Name="t"  NumberOfComponents="3" format="ascii">1.3015128397275333e-01 0.0000000000000000e+00 0.0000000000000000e+00  1.3153529663281102e-01 0.0000000000000000e+00 0.0000000000000000e+00  1.2609732043229885e-01 8.2591759784887600e-02 6.2347301045080879e-03  1.3629057431524472e-01 0.0000000000000000e+00 0.0000000000000000e+00  1.2746376709357207e-01 7.9318440375992852e-02 1.3008185786566743e-02  1.1307913783249524e-01 1.5900514386724593e-01 1.1725066733833283e-02  1.4293470296831071e-01 0.0000000000000000e+00 0.0000000000000000e+00  1.3244406898756297e-01 7.6503248006614316e-02 2.5114285526076533e-02  1.1430387832435415e-01 1.5277863982171722e-01 2.4946233565408961e-02  9.1884904899854902e-02 2.2224205425760199e-01 1.6254003358545370e-02  1.4812021517787882e-01 0.0000000000000000e+00 0.0000000000000000e+00  1.3855335442602282e-01 6.7940526032922749e-02 3.5073468608369122e-02  1.1842472396576301e-01 1.4628951984962579e-01 4.8047608198907896e-02  9.2837771613124134e-02 2.1329363938720933e-01 3.4723472899433679e-02  6.2997602719961271e-02 2.6374439940743616e-01 1.9200835130375866e-02  1.4987992982847839e-01 0.0000000000000000e+00 0.0000000000000000e+00  1.4376297621857570e-01 5.8119407339259417e-02 4.2493546047481845e-02  1.2371605742263167e-01 1.3061399047214500e-01 6.7259441927746841e-02  9.5857326806164336e-02 2.0356108694148178e-01 6.6946812468030664e-02  6.2013721700834697e-02 2.5309981780870294e-01 4.1039897682613256e-02  3.7521546873381460e-02 2.7572756646093277e-01 1.9519240536038505e-02  1.4528530279029819e-01 0.0000000000000000e+00 0.0000000000000000e+00  1.4559096290001514e-01 4.6123915791500471e-02 4.6334179501711023e-02  1.2829303871910550e-01 1.1159862812667967e-01 8.1585646810048637e-02  9.9818356983745610e-02 1.8214886168572830e-01 9.3872097769748822e-02  6.1974392828643469e-02 2.4180057535297114e-01 7.9179386563945797e-02  3.6572071123000337e-02 2.6598139505761303e-01 5.0058596036406076e-02  1.3136410698446330e-01 0.0000000000000000e+00 0.0000000000000000e+00  1.4145715991162894e-01 3.3451407071517281e-02 4.5993991954274470e-02  1.3030148572563210e-01 8.8956109497021346e-02 8.9281062647511844e-02  1.0337465634637587e-01 1.5573750969057779e-01 1.1405719536203515e-01  6.3647879462578633e-02 2.1739157044423901e-01 1.1147653531101433e-01  3.4809335256227848e-02 2.5338960355759027e-01 8.9916838146666053e-02  1.0471322449642381e-01 0.0000000000000000e+00 0.0000000000000000e+00  1.2830931150059888e-01 2.1080613882106150e-02 4.0790798975645186e-02  1.2745443255498343e-01 6.4811759729500734e-02 8.9099857232962015e-02  1.0517415415803975e-01 1.2468223734540003e-01 1.2538023032717227e-01  6.5925001387698703e-02 1.8609593498120192e-01 1.3582805747349747e-01  3.3605345345412131e-02 2.2774942519626834e-01 1.2369868503128431e-01  6.2004196722712270e-02 0.0000000000000000e+00 0.0000000000000000e+00  1.0268903405140985e-01 1.0465590367021734e-02 3.0506236756445784e-02  1.1692072157148671e-01 4.1186917039827950e-02 7.9748192134355675e-02  1.0363692441131289e-01 9.1474362721587418e-02 1.2610686398543403e-01  6.7661487789541092e-02 1.4959885992671443e-01 1.5004415879064159e-01  3.2863565854926120e-02 1.9401504869377573e-01 1.4884832133939685e-01  0.0000000000000000e+00 0.0000000000000000e+00 0.0000000000000000e+00  6.0791480858125170e-02 3.3260621004116333e-03 1.4958574491082954e-02  9.5159819471589677e-02 2.0733277023596151e-02 6.0719491307374675e-02  9.6501068066924378e-02 5.8808752046965312e-02 1.1431204726066357e-01  6.8050630188569008e-02 1.1065202369007447e-01 1.5232089501479740e-01  3.2197093802085817e-02 1.5509916297660861e-01 1.6331864713363686e-01  0.0000000000000000e+00 1.8971308417571202e-04 0.0000000000000000e+00  5.7784870015387881e-02 6.7570076057623680e-03 3.0932950095219663e-02  8.0369064224905779e-02 3.0165807816676177e-02 8.8969013327683602e-02  6.6076386307552054e-02 7.2298074641067994e-02 1.4048185180480466e-01  3.1618463926838924e-02 1.1408809696875095e-01 1.6570710421629839e-01  0.0000000000000000e+00 9.7997435988872081e-04 0.0000000000000000e+00  4.9980355059874151e-02 1.0055193983198539e-02 4.6868012599871431e-02  5.9284790095307328e-02 3.8372347583547781e-02 1.1288308706087315e-01  3.1803196534778352e-02 7.4137718473038433e-02 1.5423867290818777e-01  0.0000000000000000e+00 1.7339334873260573e-03 0.0000000000000000e+00  4.2218698361350143e-02 1.4036283763101832e-02 6.4574989259024676e-02  3.3067851019939844e-02 3.9206162196515723e-02 1.2904687465764106e-01  0.0000000000000000e+00 4.5191466980568163e-03 0.0000000000000000e+00  3.0972219355341103e-02 1.3718711543460497e-02 8.3252124946524689e-02  0.0000000000000000e+00 1.2783028623206589e-02 0.0000000000000000e+00  </DataArray> 
</PointData> 
</Piece>
</UnstructuredGrid>
</VTKFile>