<?xml version="1.0"?>
<VTKFile type="UnstructuredGrid"  version="0.1"  >
<UnstructuredGrid>
<Piece  NumberOfPoints="1024" NumberOfCells="961">
<Points>
<DataArray  type="Float64"  NumberOfComponents="3"  format="ascii">0 0 0  0.03225806451612903 0 0  0.06451612903225806 0 0  0.09677419354838709 0 0  0.1290322580645161 0 0  0.1612903225806452 0 0  0.1935483870967742 0 0  0.2258064516129032 0 0  0.2580645161290323 0 0  0.2903225806451613 0 0  0.3225806451612903 0 0  0.3548387096774194 0 0  0.3870967741935484 0 0  0.4193548387096774 0 0  0.4516129032258064 0 0  0.4838709677419355 0 0  0.5161290322580645 0 0  0.5483870967741935 0 0  0.5806451612903225 0 0  0.6129032258064516 0 0  0.6451612903225806 0 0  0.6774193548387096 0 0  0.7096774193548387 0 0  0.7419354838709677 0 0  0.7741935483870968 0 0  0.8064516129032258 0 0  0.8387096774193548 0 0  0.8709677419354839 0 0  0.9032258064516129 0 0  0.9354838709677419 0 0  0.967741935483871 0 0  1 0 0  0 0.03225806451612903 0  0.03225806451612903 0.03225806451612903 0  0.06451612903225806 0.03225806451612903 0  0.09677419354838709 0.03225806451612903 0  0.1290322580645161 0.03225806451612903 0  0.1612903225806452 0.03225806451612903 0  0.1935483870967742 0.03225806451612903 0  0.2258064516129032 0.03225806451612903 0  0.2580645161290323 0.03225806451612903 0  0.2903225806451613 0.03225806451612903 0  0.3225806451612903 0.03225806451612903 0  0.3548387096774194 0.03225806451612903 0  0.3870967741935484 0.03225806451612903 0  0.4193548387096774 0.03225806451612903 0  0.4516129032258064 0.03225806451612903 0  0.4838709677419355 0.03225806451612903 0  0.5161290322580645 0.03225806451612903 0  0.5483870967741935 0.03225806451612903 0  0.5806451612903225 0.03225806451612903 0  0.6129032258064516 0.03225806451612903 0  0.6451612903225806 0.03225806451612903 0  0.6774193548387096 0.03225806451612903 0  0.7096774193548387 0.03225806451612903 0  0.7419354838709677 0.03225806451612903 0  0.7741935483870968 0.03225806451612903 0  0.8064516129032258 0.03225806451612903 0  0.8387096774193548 0.03225806451612903 0  0.8709677419354839 0.03225806451612903 0  0.9032258064516129 0.03225806451612903 0  0.9354838709677419 0.03225806451612903 0  0.967741935483871 0.03225806451612903 0  1 0.03225806451612903 0  0 0.06451612903225806 0  0.03225806451612903 0.06451612903225806 0  0.06451612903225806 0.06451612903225806 0  0.09677419354838709 0.06451612903225806 0  0.1290322580645161 0.06451612903225806 0  0.1612903225806452 0.06451612903225806 0  0.1935483870967742 0.06451612903225806 0  0.2258064516129032 0.06451612903225806 0  0.2580645161290323 0.06451612903225806 0  0.2903225806451613 0.06451612903225806 0  0.3225806451612903 0.06451612903225806 0  0.3548387096774194 0.06451612903225806 0  0.3870967741935484 0.06451612903225806 0  0.4193548387096774 0.06451612903225806 0  0.4516129032258064 0.06451612903225806 0  0.4838709677419355 0.06451612903225806 0  0.5161290322580645 0.06451612903225806 0  0.5483870967741935 0.06451612903225806 0  0.5806451612903225 0.06451612903225806 0  0.6129032258064516 0.06451612903225806 0  0.6451612903225806 0.06451612903225806 0  0.6774193548387096 0.06451612903225806 0  0.7096774193548387 0.06451612903225806 0  0.7419354838709677 0.06451612903225806 0  0.7741935483870968 0.06451612903225806 0  0.8064516129032258 0.06451612903225806 0  0.8387096774193548 0.06451612903225806 0  0.8709677419354839 0.06451612903225806 0  0.9032258064516129 0.06451612903225806 0  0.9354838709677419 0.06451612903225806 0  0.967741935483871 0.06451612903225806 0  1 0.06451612903225806 0  0 0.09677419354838709 0  0.03225806451612903 0.09677419354838709 0  0.06451612903225806 0.09677419354838709 0  0.09677419354838709 0.09677419354838709 0  0.1290322580645161 0.09677419354838709 0  0.1612903225806452 0.09677419354838709 0  0.1935483870967742 0.09677419354838709 0  0.2258064516129032 0.09677419354838709 0  0.2580645161290323 0.09677419354838709 0  0.2903225806451613 0.09677419354838709 0  0.3225806451612903 0.09677419354838709 0  0.3548387096774194 0.09677419354838709 0  0.3870967741935484 0.09677419354838709 0  0.4193548387096774 0.09677419354838709 0  0.4516129032258064 0.09677419354838709 0  0.4838709677419355 0.09677419354838709 0  0.5161290322580645 0.09677419354838709 0  0.5483870967741935 0.09677419354838709 0  0.5806451612903225 0.09677419354838709 0  0.6129032258064516 0.09677419354838709 0  0.6451612903225806 0.09677419354838709 0  0.6774193548387096 0.09677419354838709 0  0.7096774193548387 0.09677419354838709 0  0.7419354838709677 0.09677419354838709 0  0.7741935483870968 0.09677419354838709 0  0.8064516129032258 0.09677419354838709 0  0.8387096774193548 0.09677419354838709 0  0.8709677419354839 0.09677419354838709 0  0.9032258064516129 0.09677419354838709 0  0.9354838709677419 0.09677419354838709 0  0.967741935483871 0.09677419354838709 0  1 0.09677419354838709 0  0 0.1290322580645161 0  0.03225806451612903 0.1290322580645161 0  0.06451612903225806 0.1290322580645161 0  0.09677419354838709 0.1290322580645161 0  0.1290322580645161 0.1290322580645161 0  0.1612903225806452 0.1290322580645161 0  0.1935483870967742 0.1290322580645161 0  0.2258064516129032 0.1290322580645161 0  0.2580645161290323 0.1290322580645161 0  0.2903225806451613 0.1290322580645161 0  0.3225806451612903 0.1290322580645161 0  0.3548387096774194 0.1290322580645161 0  0.3870967741935484 0.1290322580645161 0  0.4193548387096774 0.1290322580645161 0  0.4516129032258064 0.1290322580645161 0  0.4838709677419355 0.1290322580645161 0  0.5161290322580645 0.1290322580645161 0  0.5483870967741935 0.1290322580645161 0  0.5806451612903225 0.1290322580645161 0  0.6129032258064516 0.1290322580645161 0  0.6451612903225806 0.1290322580645161 0  0.6774193548387096 0.1290322580645161 0  0.7096774193548387 0.1290322580645161 0  0.7419354838709677 0.1290322580645161 0  0.7741935483870968 0.1290322580645161 0  0.8064516129032258 0.1290322580645161 0  0.8387096774193548 0.1290322580645161 0  0.8709677419354839 0.1290322580645161 0  0.9032258064516129 0.1290322580645161 0  0.9354838709677419 0.1290322580645161 0  0.967741935483871 0.1290322580645161 0  1 0.1290322580645161 0  0 0.1612903225806452 0  0.03225806451612903 0.1612903225806452 0  0.06451612903225806 0.1612903225806452 0  0.09677419354838709 0.1612903225806452 0  0.1290322580645161 0.1612903225806452 0  0.1612903225806452 0.1612903225806452 0  0.1935483870967742 0.1612903225806452 0  0.2258064516129032 0.1612903225806452 0  0.2580645161290323 0.1612903225806452 0  0.2903225806451613 0.1612903225806452 0  0.3225806451612903 0.1612903225806452 0  0.3548387096774194 0.1612903225806452 0  0.3870967741935484 0.1612903225806452 0  0.4193548387096774 0.1612903225806452 0  0.4516129032258064 0.1612903225806452 0  0.4838709677419355 0.1612903225806452 0  0.5161290322580645 0.1612903225806452 0  0.5483870967741935 0.1612903225806452 0  0.5806451612903225 0.1612903225806452 0  0.6129032258064516 0.1612903225806452 0  0.6451612903225806 0.1612903225806452 0  0.6774193548387096 0.1612903225806452 0  0.7096774193548387 0.1612903225806452 0  0.7419354838709677 0.1612903225806452 0  0.7741935483870968 0.1612903225806452 0  0.8064516129032258 0.1612903225806452 0  0.8387096774193548 0.1612903225806452 0  0.8709677419354839 0.1612903225806452 0  0.9032258064516129 0.1612903225806452 0  0.9354838709677419 0.1612903225806452 0  0.967741935483871 0.1612903225806452 0  1 0.1612903225806452 0  0 0.1935483870967742 0  0.03225806451612903 0.1935483870967742 0  0.06451612903225806 0.1935483870967742 0  0.09677419354838709 0.1935483870967742 0  0.1290322580645161 0.1935483870967742 0  0.1612903225806452 0.1935483870967742 0  0.1935483870967742 0.1935483870967742 0  0.2258064516129032 0.1935483870967742 0  0.2580645161290323 0.1935483870967742 0  0.2903225806451613 0.1935483870967742 0  0.3225806451612903 0.1935483870967742 0  0.3548387096774194 0.1935483870967742 0  0.3870967741935484 0.1935483870967742 0  0.4193548387096774 0.1935483870967742 0  0.4516129032258064 0.1935483870967742 0  0.4838709677419355 0.1935483870967742 0  0.5161290322580645 0.1935483870967742 0  0.5483870967741935 0.1935483870967742 0  0.5806451612903225 0.1935483870967742 0  0.6129032258064516 0.1935483870967742 0  0.6451612903225806 0.1935483870967742 0  0.6774193548387096 0.1935483870967742 0  0.7096774193548387 0.1935483870967742 0  0.7419354838709677 0.1935483870967742 0  0.7741935483870968 0.1935483870967742 0  0.8064516129032258 0.1935483870967742 0  0.8387096774193548 0.1935483870967742 0  0.8709677419354839 0.1935483870967742 0  0.9032258064516129 0.1935483870967742 0  0.9354838709677419 0.1935483870967742 0  0.967741935483871 0.1935483870967742 0  1 0.1935483870967742 0  0 0.2258064516129032 0  0.03225806451612903 0.2258064516129032 0  0.06451612903225806 0.2258064516129032 0  0.09677419354838709 0.2258064516129032 0  0.1290322580645161 0.2258064516129032 0  0.1612903225806452 0.2258064516129032 0  0.1935483870967742 0.2258064516129032 0  0.2258064516129032 0.2258064516129032 0  0.2580645161290323 0.2258064516129032 0  0.2903225806451613 0.2258064516129032 0  0.3225806451612903 0.2258064516129032 0  0.3548387096774194 0.2258064516129032 0  0.3870967741935484 0.2258064516129032 0  0.4193548387096774 0.2258064516129032 0  0.4516129032258064 0.2258064516129032 0  0.4838709677419355 0.2258064516129032 0  0.5161290322580645 0.2258064516129032 0  0.5483870967741935 0.2258064516129032 0  0.5806451612903225 0.2258064516129032 0  0.6129032258064516 0.2258064516129032 0  0.6451612903225806 0.2258064516129032 0  0.6774193548387096 0.2258064516129032 0  0.7096774193548387 0.2258064516129032 0  0.7419354838709677 0.2258064516129032 0  0.7741935483870968 0.2258064516129032 0  0.8064516129032258 0.2258064516129032 0  0.8387096774193548 0.2258064516129032 0  0.8709677419354839 0.2258064516129032 0  0.9032258064516129 0.2258064516129032 0  0.9354838709677419 0.2258064516129032 0  0.967741935483871 0.2258064516129032 0  1 0.225806451
[...]
<CellData  Scalars="f_44"> 
<DataArray  type="Float64"  Name="f_44"  format="ascii">1.0000000000215328e-02   5.7824368516569233e+00   1.1377954579639431e+00   4.6117352344206557e+00   2.3930725165252751e+00   2.2778399895755035e+00   2.5411011995610435e+00   3.0036900776934621e+00   3.6670899335098635e+00   3.8777563012972687e+00   4.2827266898871494e+00   4.3134670709659826e+00   4.5506794926440977e+00   4.4781808335623001e+00   4.1332383746966901e+00   4.0568467106496042e+00   3.8251000030074649e+00   3.6751665020735254e+00   3.4402193996336417e+00   3.1532207991123005e+00   2.8757335496197243e+00   2.5837240224301787e+00   2.2644401922753201e+00   1.9296695723763542e+00   1.5284936312514639e+00   9.1471920578164667e-01   1.0000000000062461e-02   1.1982834271728909e-01   1.0000000000024505e-02   1.6608861222553414e-01   8.1720887184816210e-02   1.0000000000045561e-02   1.0000000000037222e-02   1.0000000000017368e-02   1.0000000000024207e-02   6.9828635173354714e-01   1.0000000000034549e-02   1.0000000000062789e-02   1.0000000000046642e-02   1.0000000000054333e-02   1.0000000000059394e-02   1.0000000000063012e-02   1.0000000000067533e-02   1.0000000000070439e-02   6.2160309230875088e-01   1.0000000000076866e-02   1.0000000000072966e-02   1.0000000000070904e-02   1.0000000000072689e-02   2.4395591493879959e-01   1.0000000000056013e-02   1.0000000000054068e-02   1.0000000000043635e-02   1.0000000000034984e-02   1.0000000000027296e-02   1.0000000000021138e-02   9.7428800337886434e-01   9.5992739987259623e-01   1.0000000000050805e-02   1.1586637625015599e-01   1.1459942794280994e-01   1.0000000000018957e-02   1.0000000000018531e-02   5.4194955579813919e-01   6.4390560835583888e-01   5.8338888009313450e-01   4.8994827399527185e-01   4.1058823174673614e-01   2.4834678476551575e-01   1.5619296093179291e-01   1.0481227915967062e-01   1.0000000000043330e-02   4.1887869968709475e-02   1.0000000000044014e-02   2.9751672897407772e-01   2.3150273844116614e-01   2.7221199750743852e-01   1.0000000000052857e-02   1.0000000000034651e-02   1.0000000000044289e-02   1.0000000000042183e-02   1.0000000000040593e-02   9.2665669727505839e-02   1.0864089345818630e-01   1.2511072329098466e-01   1.5490399988947662e-01   2.9329497703833723e-01   1.0000000000017254e-02   1.0000000000054821e-02   2.5070119481179282e-01   1.7079992929462132e-01   1.1600197477428023e-01   9.8153998878606485e-02   1.0000000000041084e-02   1.2035803529835023e+00   8.5147286264008537e-01   6.7587360217850656e-01   5.3948695293272209e-01   4.2223765499052368e-01   3.1048538995335667e-01   2.0225392211496165e-01   1.0000000000025376e-02   1.0000000000009068e-02   1.2164574528120735e-01   1.0000000000027934e-02   1.0000000000020513e-02   1.0531595886052703e-01   1.0000000000020706e-02   1.0000000000041528e-02   1.6640236842956371e-01   1.3057926369069539e-01   1.2536816651958735e-01   1.3303919489477231e-01   1.4203296619976130e-01   1.5206931212523406e-01   1.6599375269446384e-01   1.9971804736044230e-01   1.8735023144173460e-01   1.8110082615344372e-01   1.8103879523307628e-01   1.7293399971025480e-01   1.7109038534612381e-01   1.2848591288337560e-01   8.2400864209338148e-02   2.6783536273863318e+00   1.2346377483901483e+00   9.2056139216990018e-01   7.0718427093900160e-01   5.4667730194057373e-01   4.2137260949723732e-01   2.9832949270604014e-01   1.6951666412200317e-01   1.0000000000033864e-02   2.9866718279683924e-01   1.8221720493518356e-01   1.8158315833724950e-01   1.7248121101320799e-01   1.6394558170996940e-01   1.6401894414158463e-01   1.6957866549403511e-01   1.8020131542270829e-01   1.7758139945836973e-01   1.7996567746640535e-01   1.7865684713138616e-01   1.8045651452078504e-01   1.8296253648909544e-01   1.8941697511649719e-01   1.9199169530978136e-01   1.9158505412970003e-01   1.8626528268311118e-01   1.7911960158406343e-01   1.6860872901071661e-01   1.5050016007495601e-01   1.2620165295717406e-01   8.0586298207877688e-02   1.0000000000206470e-02   1.0689573060836013e+00   8.2020655699608080e-01   6.4803568354561325e-01   5.1478227818306177e-01   3.7231167547787219e-01   2.3041146016878591e-01   1.0000000000034356e-02   1.7788669712540628e-01   2.4573785220815930e-01   2.5116900603127451e-01   2.5835668882164337e-01   2.5064351336350088e-01   2.4639707512376238e-01   2.3721189663442691e-01   2.3538255476900524e-01   2.2925796780583296e-01   2.2543296966037973e-01   2.1868229910773412e-01   2.1438224915065476e-01   2.1011449003237662e-01   2.0717718720057102e-01   2.0445000835629995e-01   2.0104333369488503e-01   1.9585450348834108e-01   1.8821762457070312e-01   1.7760389502377411e-01   1.6296184884014617e-01   1.4333360106501566e-01   1.1785751108530519e-01   7.6492597970822834e-02   1.0000000000053768e-02   5.4898644553131204e-01   6.3647345641782782e-01   5.2877823580515471e-01   4.9431094962766664e-01   2.4109967087576781e-01   1.0000000000033222e-02   2.1706944193888592e-01   2.8949424459201561e-01   3.1027442711394726e-01   3.2223297310951826e-01   3.1886153753736679e-01   3.1304232413278099e-01   3.0259547803920217e-01   2.9301130440057149e-01   2.8221178019827731e-01   2.7272717076998743e-01   2.6228641112203871e-01   2.5282261397202482e-01   2.4354092554059711e-01   2.3521589198445675e-01   2.2735714654513470e-01   2.1967774270576182e-01   2.1163030799274762e-01   2.0249357397404261e-01   1.9163251239911208e-01   1.7822808087954456e-01   1.6144133377508388e-01   1.4061383533574898e-01   1.1426160297557109e-01   6.9545532108928304e-02   1.0000000000027671e-02   3.4911660249841470e-01   4.1063247012593102e-01   3.8610379348153145e-01   1.0000000000041826e-02   1.0000000000004346e-02   3.0064853374176648e-01   3.4775713362410088e-01   3.7312661899348276e-01   3.8437688485128513e-01   3.8453521086133857e-01   3.7740031647109079e-01   3.6546220607955016e-01   3.5197142226714295e-01   3.3745827582514309e-01   3.2304884575792459e-01   3.0871571394626163e-01   2.9489531729265228e-01   2.8153353676231946e-01   2.6890759671879327e-01   2.5689892990026036e-01   2.4538493929175897e-01   2.3405116345619972e-01   2.2248834378840004e-01   2.1019525994399813e-01   1.9657807185106774e-01   1.8098620212600947e-01   1.6274781738382810e-01   1.4115582925175638e-01   1.1492655596640727e-01   6.9859642955492463e-02   1.0000000000012292e-02   1.0000000000022850e-02   1.0000000000012608e-02   1.0000000000019266e-02   3.5572814593906399e-01   4.3361428835901450e-01   4.2251727581763759e-01   4.4851639113882213e-01   4.5767035214297996e-01   4.5519582464995090e-01   4.4498528248530828e-01   4.3062888244366671e-01   4.1346100243929290e-01   3.9507127652984136e-01   3.7645266625895507e-01   3.5806034607344533e-01   3.4018486142083787e-01   3.2298106108080282e-01   3.0655105833410318e-01   2.9088856786514766e-01   2.7592577295153320e-01   2.6148271436747295e-01   2.4728855878588660e-01   2.3300543451193650e-01   2.1821242114335174e-01   2.0243599066913473e-01   1.8515697443396723e-01   1.6584863169578928e-01   1.4397932539662911e-01   1.1807069712366236e-01   6.9898410479164952e-02   1.0000000000013044e-02   1.0000000000038175e-02   5.1309978225324393e-01   4.5874530643109424e-01   4.7510412862748497e-01   5.3585636010018345e-01   5.4471251377733454e-01   5.4715583867723361e-01   5.3737378129169933e-01   5.2193772470877842e-01   5.0215384566935906e-01   4.7991127793421551e-01   4.5676404297280909e-01   4.3347638377382625e-01   4.1064192167687763e-01   3.8857930092945292e-01   3.6744377473244055e-01   3.4730152966048877e-01   3.2814209704901731e-01   3.0991834729401901e-01   2.9249063580800189e-01   2.7566945610259463e-01   2.5919813992989266e-01   2.4276713381181325e-01   2.2602244653826145e-01   2.0856669915537265e-01   1.8999016618617653e-01   1.6987508010362579e-01   1.4765398764083087e-01   1.2101250268027587e-01   7.0473987934738691e-02   1.0000000000020683e-02   1.0000000000017112e-02   4.2385056153188866e-01   5.7613605565134574e-01   6.3904235547853272e-01   6.5815885488347792e-01   6.5753296749008949e-01   6.3751844572510719e-01   6.1306984997470559e-01   5.8428528094566112e-01   5.5448492023030560e-01   5.2459886154263191e-01   4.9534987188833951e-01   4.6718628331088979e-01   4.4032800317310478e-01   4.1485474569101888e-01   3.9076981768969565e-01   3.6802390836884924e-01   3.4651226092530124e-01   3.2611177272186825e-01   3.0664112671137711e-01   2.8788866838194321e-01   2.6959690636681805e-01   2.5147510656099098e-01   2.3320959565973806e-01   2.1445887125839933e-01   1.9487620540784467e-01   1.7408260069600592e-01   1.5137854330897738e-01   1.2361538974627534e-01   7.1044517082557740e-02   1.1103052611644875e+00   1.0000000000021615e-02   6.0712860893686682e-01   7.4251676813789924e-01   7.9252573396291626e-01   7.8985141120137670e-01   7.6164792558223282e-01   7.2310230394442754e-01   6.8132842033194041e-01   6.4034348822713361e-01   6.0086797218236165e-01   5.6358668968485692e-01   5.2860413554738694e-01   4.9589456385831898e-01   4.6535441937171806e-01   4.3683344679334768e-01   4.1016719040822658e-01   3.8518103815436805e-01   3.6168506094268316e-01   3.3948121781588841e-01   3.1835070587420466e-01   2.9805311661121325e-01   2.7832919108866622e-01   2.5889500679251692e-01   2.3946022995466906e-01   2.1972088873782933e-01   1.9936481319901311e-01   1.7800899485160393e-01   1.5482355205170656e-01   1.2611433869089578e-01   7.1562396090030095e-02   1.0000000000027062e-02   4.5646767396149984e-01   8.3948659637376333e-01   9.5153979163439939e-01   9.6636961721276526e-01   9.1993117868669316e-01   8.5930107919943233e-01   7.9824820065899627e-01   7.4062285052660326e-01   6.8772418863564511e-01   6.3957892328061394e-01   5.9572617021616503e-01   5.5570897151422638e-01   5.1906798336552618e-01   4.8539032417065681e-01   4.5431143430112603e-01   4.2551129375219726e-01   3.9870004472582549e-01   3.7361127734936361e-01   3.4998190734403900e-01   3.2755752763542623e-01   3.0607398022286708e-01   2.8526277406141715e-01   2.6484593304038473e-01   2.4454353503702944e-01   2.2407463145170606e-01   2.0314471127946970e-01   1.8135850661915276e-01   1.5779254226915676e-01   1.2823356709182626e-01   7.1715825704672803e-02   1.0000000000124602e-02   8.4916299883587187e-01   1.0939589528034488e+00   1.2425741374615658e+00   1.1443827436678908e+00   1.0369840420365060e+00   9.4164719438644329e-01   8.5875989536120245e-01   7.8688414901589609e-01   7.2411731533452617e-01   6.6886378477603969e-01   6.1978796640609601e-01   5.7582295479061585e-01   5.3613460930200008e-01   5.0005157004096223e-01   4.6703405945916981e-01   4.3663273841900313e-01   4.0846838398992025e-01   3.8221002872034671e-01   3.5754647186229499e-01   3.3419341083923604e-01   3.1186735951844530e-01   2.9029159020049072e-01   2.6918977174888553e-01   2.4828878103722865e-01   2.2732097379572391e-01   2.0599931558134540e-01   1.8391450877603943e-01   1.6005402642604483e-01   1.2977006670942476e-01   7.1582929882897064e-02   1.0000000000210632e-02   1.0000000000786080e-02   1.8545542315206074e+00   1.5048171638535497e+00   1.2794549017160899e+00   1.1210298022767056e+00   9.9746608638855327e-01   8.9847919801865783e-01   8.1653740048587098e-01   7.4709329671692759e-01   6.8716895275641265e-01   6.3470595722568157e-01   5.8821513230687650e-01   5.4659378933117975e-01   5.0899727712829645e-01   4.7476805346372303e-01   4.4337370598401804e-01   4.1437604628120689e-01   3.8740228448180025e-01   3.6211147088827855e-01   3.3819845537301957e-01   3.1536883510170927e-01   2.9333867047898649e-01   2.7183288332909844e-01   2.5058065714702960e-01   2.2932179759569696e-01   2.0776953587374183e-01   1.8550839781816897e-01   1.6146208627918637e-01   1.3068349169255358e-01   7.1383394653470975e-02   9.9999999975231333e+00   4.3022382505763268e+00   2.1095754039182193e+00   1.6028184306885238e+00   1.3353490115310587e+00   1.1510235554172490e+00   1.0172801149717361e+00   9.1233674219642436e-01   8.2675278941600094e-01   7.5494009727427758e-01   6.9338537286971724e-01   6.3975001153563504e-01   5.9239004708970966e-01   5.5010698410515368e-01   5.1199456416016842e-01   4.7735403783291103e-01   4.4562402699404474e-01   4.1634594508279105e-01   3.8913257103315335e-01   3.6363230848311601e-01   3.3953326219430874e-01   3.1653651466709559e-01   2.9435597493518068e-01   2.7271628932172720e-01   2.5134780405406121e-01   2.2999122521209819e-01   2.0836200576107286e-01   1.8603722191831532e-01   1.6192012601734729e-01   1.3095782544923734e-01   7.1280656475342347e-02   1.0000000000209237e-02   1.0000001200662393e-02   1.8507055946394655e+00   1.5037635741994009e+00   1.2790039066314653e+00   1.1207809860810947e+00   9.9730940743204621e-01   8.9837220251116234e-01   8.1645834809592777e-01   7.4703057537425077e-01   6.8711623764670038e-01   6.3465955155359621e-01   5.8817291361097745e-01   5.4655471670390399e-01   5.0896132219434842e-01   4.7473542498913956e-01   4.4334467207126599e-01   4.1435088964847150e-01   3.8738107531759497e-01   3.6209398231092083e-01   3.3818425275414632e-01   3.1535726402150166e-01   2.9332856373369343e-01   2.7182301432264072e-01   2.5056918287921692e-01   2.2930575180751034e-01   2.0774498020921742e-01   1.8547156864558564e-01   1.6140269105826316e-01   1.3059277023256255e-01   7.1357581268696110e-02   1.0000000000124236e-02   8.4726157855593298e-01   1.0926418152392228e+00   1.2413988638819098e+00   1.1436968933622080e+00   1.0365651372317948e+00   9.4137220791898102e-01   8.5856526253274623e-01   7.8673607591959493e-01   7.2399779232157901e-01   6.6876220554299870e-01   6.1969741564674607e-01   5.7573964511262632e-01   5.3605690237703651e-01   4.9997982696037924e-01   4.6696890331334134e-01   4.3657492681466431e-01   4.0841863097494907e-01   3.8216860553931992e-01   3.5751281383223560e-01   3.3416674514069217e-01   3.1184620091350507e-01   2.9027370679092346e-01   2.6917282846778640e-01   2.4826934824093230e-01   2.2729277983349758e-01   2.0595404649793272e-01   1.8384299700740159e-01   1.5993995093951993e-01   1.2959747925401480e-01   7.1538976780814542e-02   1.0000000000027058e-02   4.5485037296292014e-01   8.3863110141285213e-01   9.5067442423365434e-01   9.6569266109813390e-01   9.1946146599584822e-01   8.5896398457840095e-01   7.9799218867813082e-01   7.4042169709449934e-01   6.8755883778649329e-01   6.3943517662145266e-01   5.9559485141666157e-01   5.5558594721659105e-01   5.1895191631045878e-01   4.8528255474308757e-01   4.5421345167814092e-01   4.2542485809513159e-01   3.9862671124830212e-01   3.7355147120045051e-01   3.4993482465621889e-01   3.2752177552809381e-01   3.0604700405761526e-01   2.8524101152184528e-01   2.6482572546137634e-01   2.4451980519060965e-01   2.2403954732890724e-01   2.0308500079359501e-01   1.8125843030319105e-01   1.5762362324576767e-01   1.2797621417922128e-01   7.1634585745588258e-02   1.1101464849245695e+00   1.0000000000020727e-02   6.0619205362911832e-01   7.4182505836477364e-01   7.9197631418068259e-01   7.8940880760332077e-01   7.6128481650195101e-01   7.2281729860452903e-01   6.8109531581806249e-01   6.4014428502066889e-01   6.0068816773373557e-01   5.6341776946965139e-01   5.2844161288156788e-01   4.9573888864834070e-01   4.6520890240016155e-01   4.3670097947948999e-01   4.1005165462206988e-01   3.8508522434870129e-01   3.6160960112599838e-01   3.3942487738834787e-01   3.1831124245675996e-01   2.9802622955272617e-01   2.7831024569098528e-01   2.5887914112786381e-01   2.3944092295530980e-01   2.1968676507626644e-01   1.9930027989028781e-01   1.7788932300067381e-01   1.5461497084408615e-01   1.2577824898186191e-01   7.1457530990231791e-02   1.0000000000020123e-02   1.0000000000018570e-02   4.2336596586435132e-01   5.7566829161888522e-01   6.3862990615741300e-01   6.5774120254324464e-01   6.5719216750370346e-01   6.3722331580643810e-01   6.1282127424593447e-01   5.8406148732617558e-01   5.5427583173803185e-01   5.2439176039057556e-01   4.9514420646227514e-01   4.6698729665394423e-01   4.4013924242281560e-01   4.1468307525124254e-01   3.9062369600099200e-01   3.6790647373173407e-01   3.4642463662365153e-01   3.2605248899133005e-01   3.0660542905319438e-01   2.8786999587177753e-01   2.6958931387084684e-01   2.5147231125930142e-01   2.3320368013942977e-01   2.1443600673901908e-01   1.9482060769484735e-01   1.7396332117350624e-01   1.5114099750749740e-01   1.2320919494359502e-01   7.0896688909912228e-02   1.0000000000012974e-02   1.0000000000036813e-02   5.1274269051481935e-01   4.5795719376107302e-01   4.7471486624284492e-01   5.3548015996995268e-01   5.4437570776227351e-01   5.4689191144915117e-01   5.3711221129055942e-01   5.2170151962465838e-01   5.0191254817695841e-01   4.7966378568798201e-01   4.5650731643936510e-01   4.3321841995922461e-01   4.1039867574086314e-01   3.8836300034020454e-01   3.6726143957980134e-01   3.4716272082652289e-01   3.2804751571405466e-01   3.0986565485232392e-01   2.9246890207035742e-01   2.7566908251761441e-01   2.5921135159368397e-01   2.4278626290823163e-01   2.2603897811534987e-01   2.0856733993190615e-01   1.8995722728067055e-01   1.6977663079496572e-01   1.4742440399244761e-01   1.2052701729091105e-01   7.0246750280177669e-02   1.0000000000012447e-02   1.0000000000023209e-02   1.0000000000012129e-02   1.0000000000015550e-02   3.5416654698016342e-01   4.3329479480842409e-01   4.2234171865724907e-01   4.4824566739421745e-01   4.5743462002906521e-01   4.5493223376885145e-01   4.4471106751678374e-01   4.3032181436904987e-01   4.1312340196020836e-01   3.9473701129117011e-01   3.7613932179098680e-01   3.5778065030115441e-01   3.3995792944547554e-01   3.2281888173252571e-01   3.0646106632825021e-01   2.9085598260317241e-01   2.7593296657342514e-01   2.6151434137613611e-01   2.4733456890280686e-01   2.3305800075893932e-01   2.1826319133778760e-01   2.0247027730366063e-01   1.8515938837512055e-01   1.6578742507417171e-01   1.4379074562378499e-01   1.1760240981769657e-01   6.9626488389010047e-02   1.0000000000027770e-02   3.5010835822881631e-01   4.1089496362114325e-01   3.8668123666311544e-01   1.0000000000043327e-02   1.0000000000001997e-02   3.0063266364064356e-01   3.4749935045135516e-01   3.7288638342474006e-01   3.8409621932240562e-01   3.8423698645477133e-01   3.7697448861309057e-01   3.6500889088956262e-01   3.5151476259532211e-01   3.3704384599973386e-01   3.2267618580049423e-01   3.0842617910155129e-01   2.9470828063079552e-01   2.8146852392144733e-01   2.6891768060458648e-01   2.5696141773125175e-01   2.4546281591846411e-01   2.3414285666941725e-01   2.2258816978681611e-01   2.1029308991474049e-01   1.9665867158824879e-01   1.8103682786546207e-01   1.6273909964059596e-01   1.4103830964287381e-01   1.1457205998976072e-01   6.9483142694548847e-02   1.0000000000054245e-02   5.4926538679602299e-01   6.3666941301901669e-01   5.2874178121192239e-01   4.9461082872135387e-01   2.4063482953475093e-01   1.0000000000036764e-02   2.1747054147161660e-01   2.8899421700248129e-01   3.1007511052228259e-01   3.2179532197619370e-01   3.1830168713617457e-01   3.1236190141518028e-01   3.0197148248542877e-01   2.9238323188330284e-01   2.8175279285995514e-01   2.7223333286739465e-01   2.6216387544867392e-01   2.5275493609459732e-01   2.4369964928243634e-01   2.3533955678363400e-01   2.2749838947451376e-01   2.1983018851444558e-01   2.1180177955174936e-01   2.0265259516241674e-01   1.9176500026190899e-01   1.7832250061981211e-01   1.6148873202377900e-01   1.4055185352653163e-01   1.1403323655975042e-01   6.9324108178247176e-02   1.0000000000207161e-02   1.0698862262536484e+00   8.2040301464035026e-01   6.4774974295198617e-01   5.1433897373370563e-01   3.7182023583965190e-01   2.2970956734322265e-01   1.0000000000036945e-02   1.7796778721131873e-01   2.4534920290231121e-01   2.5130859250229326e-01   2.5761684055895701e-01   2.4923776421948263e-01   2.4545414190576167e-01   2.3660555360464822e-01   2.3392284009423681e-01   2.2920290639884583e-01   2.2464010880852120e-01   2.1924600667255167e-01   2.1457817321910802e-01   2.1038005298422921e-01   2.07350937205881