<?xml version="1.0"?>
<VTKFile type="UnstructuredGrid"  version="0.1"  >
<UnstructuredGrid>
<Piece  NumberOfPoints="1024" NumberOfCells="961">
<Points>
<DataArray  type="Float64"  NumberOfComponents="3"  format="ascii">0 0 0  0.03225806451612903 0 0  0.06451612903225806 0 0  0.09677419354838709 0 0  0.1290322580645161 0 0  0.1612903225806452 0 0  0.1935483870967742 0 0  0.2258064516129032 0 0  0.2580645161290323 0 0  0.2903225806451613 0 0  0.3225806451612903 0 0  0.3548387096774194 0 0  0.3870967741935484 0 0  0.4193548387096774 0 0  0.4516129032258064 0 0  0.4838709677419355 0 0  0.5161290322580645 0 0  0.5483870967741935 0 0  0.5806451612903225 0 0  0.6129032258064516 0 0  0.6451612903225806 0 0  0.6774193548387096 0 0  0.7096774193548387 0 0  0.7419354838709677 0 0  0.7741935483870968 0 0  0.8064516129032258 0 0  0.8387096774193548 0 0  0.8709677419354839 0 0  0.9032258064516129 0 0  0.9354838709677419 0 0  0.967741935483871 0 0  1 0 0  0 0.03225806451612903 0  0.03225806451612903 0.03225806451612903 0  0.06451612903225806 0.03225806451612903 0  0.09677419354838709 0.03225806451612903 0  0.1290322580645161 0.03225806451612903 0  0.1612903225806452 0.03225806451612903 0  0.1935483870967742 0.03225806451612903 0  0.2258064516129032 0.03225806451612903 0  0.2580645161290323 0.03225806451612903 0  0.2903225806451613 0.03225806451612903 0  0.3225806451612903 0.03225806451612903 0  0.3548387096774194 0.03225806451612903 0  0.3870967741935484 0.03225806451612903 0  0.4193548387096774 0.03225806451612903 0  0.4516129032258064 0.03225806451612903 0  0.4838709677419355 0.03225806451612903 0  0.5161290322580645 0.03225806451612903 0  0.5483870967741935 0.03225806451612903 0  0.5806451612903225 0.03225806451612903 0  0.6129032258064516 0.03225806451612903 0  0.6451612903225806 0.03225806451612903 0  0.6774193548387096 0.03225806451612903 0  0.7096774193548387 0.03225806451612903 0  0.7419354838709677 0.03225806451612903 0  0.7741935483870968 0.03225806451612903 0  0.8064516129032258 0.03225806451612903 0  0.8387096774193548 0.03225806451612903 0  0.8709677419354839 0.03225806451612903 0  0.9032258064516129 0.03225806451612903 0  0.9354838709677419 0.03225806451612903 0  0.967741935483871 0.03225806451612903 0  1 0.03225806451612903 0  0 0.06451612903225806 0  0.03225806451612903 0.06451612903225806 0  0.06451612903225806 0.06451612903225806 0  0.09677419354838709 0.06451612903225806 0  0.1290322580645161 0.06451612903225806 0  0.1612903225806452 0.06451612903225806 0  0.1935483870967742 0.06451612903225806 0  0.2258064516129032 0.06451612903225806 0  0.2580645161290323 0.06451612903225806 0  0.2903225806451613 0.06451612903225806 0  0.3225806451612903 0.06451612903225806 0  0.3548387096774194 0.06451612903225806 0  0.3870967741935484 0.06451612903225806 0  0.4193548387096774 0.06451612903225806 0  0.4516129032258064 0.06451612903225806 0  0.4838709677419355 0.06451612903225806 0  0.5161290322580645 0.06451612903225806 0  0.5483870967741935 0.06451612903225806 0  0.5806451612903225 0.06451612903225806 0  0.6129032258064516 0.06451612903225806 0  0.6451612903225806 0.06451612903225806 0  0.6774193548387096 0.06451612903225806 0  0.7096774193548387 0.06451612903225806 0  0.7419354838709677 0.06451612903225806 0  0.7741935483870968 0.06451612903225806 0  0.8064516129032258 0.06451612903225806 0  0.8387096774193548 0.06451612903225806 0  0.8709677419354839 0.06451612903225806 0  0.9032258064516129 0.06451612903225806 0  0.9354838709677419 0.06451612903225806 0  0.967741935483871 0.06451612903225806 0  1 0.06451612903225806 0  0 0.09677419354838709 0  0.03225806451612903 0.09677419354838709 0  0.06451612903225806 0.09677419354838709 0  0.09677419354838709 0.09677419354838709 0  0.1290322580645161 0.09677419354838709 0  0.1612903225806452 0.09677419354838709 0  0.1935483870967742 0.09677419354838709 0  0.2258064516129032 0.09677419354838709 0  0.2580645161290323 0.09677419354838709 0  0.2903225806451613 0.09677419354838709 0  0.3225806451612903 0.09677419354838709 0  0.3548387096774194 0.09677419354838709 0  0.3870967741935484 0.09677419354838709 0  0.4193548387096774 0.09677419354838709 0  0.4516129032258064 0.09677419354838709 0  0.4838709677419355 0.09677419354838709 0  0.5161290322580645 0.09677419354838709 0  0.5483870967741935 0.09677419354838709 0  0.5806451612903225 0.09677419354838709 0  0.6129032258064516 0.09677419354838709 0  0.6451612903225806 0.09677419354838709 0  0.6774193548387096 0.09677419354838709 0  0.7096774193548387 0.09677419354838709 0  0.7419354838709677 0.09677419354838709 0  0.7741935483870968 0.09677419354838709 0  0.8064516129032258 0.09677419354838709 0  0.8387096774193548 0.09677419354838709 0  0.8709677419354839 0.09677419354838709 0  0.9032258064516129 0.09677419354838709 0  0.9354838709677419 0.09677419354838709 0  0.967741935483871 0.09677419354838709 0  1 0.09677419354838709 0  0 0.1290322580645161 0  0.03225806451612903 0.1290322580645161 0  0.06451612903225806 0.1290322580645161 0  0.09677419354838709 0.1290322580645161 0  0.1290322580645161 0.1290322580645161 0  0.1612903225806452 0.1290322580645161 0  0.1935483870967742 0.1290322580645161 0  0.2258064516129032 0.1290322580645161 0  0.2580645161290323 0.1290322580645161 0  0.2903225806451613 0.1290322580645161 0  0.3225806451612903 0.1290322580645161 0  0.3548387096774194 0.1290322580645161 0  0.3870967741935484 0.1290322580645161 0  0.4193548387096774 0.1290322580645161 0  0.4516129032258064 0.1290322580645161 0  0.4838709677419355 0.1290322580645161 0  0.5161290322580645 0.1290322580645161 0  0.5483870967741935 0.1290322580645161 0  0.5806451612903225 0.1290322580645161 0  0.6129032258064516 0.1290322580645161 0  0.6451612903225806 0.1290322580645161 0  0.6774193548387096 0.1290322580645161 0  0.7096774193548387 0.1290322580645161 0  0.7419354838709677 0.1290322580645161 0  0.7741935483870968 0.1290322580645161 0  0.8064516129032258 0.1290322580645161 0  0.8387096774193548 0.1290322580645161 0  0.8709677419354839 0.1290322580645161 0  0.9032258064516129 0.1290322580645161 0  0.9354838709677419 0.1290322580645161 0  0.967741935483871 0.1290322580645161 0  1 0.1290322580645161 0  0 0.1612903225806452 0  0.03225806451612903 0.1612903225806452 0  0.06451612903225806 0.1612903225806452 0  0.09677419354838709 0.1612903225806452 0  0.1290322580645161 0.1612903225806452 0  0.1612903225806452 0.1612903225806452 0  0.1935483870967742 0.1612903225806452 0  0.2258064516129032 0.1612903225806452 0  0.2580645161290323 0.1612903225806452 0  0.2903225806451613 0.1612903225806452 0  0.3225806451612903 0.1612903225806452 0  0.3548387096774194 0.1612903225806452 0  0.3870967741935484 0.1612903225806452 0  0.4193548387096774 0.1612903225806452 0  0.4516129032258064 0.1612903225806452 0  0.4838709677419355 0.1612903225806452 0  0.5161290322580645 0.1612903225806452 0  0.5483870967741935 0.1612903225806452 0  0.5806451612903225 0.1612903225806452 0  0.6129032258064516 0.1612903225806452 0  0.6451612903225806 0.1612903225806452 0  0.6774193548387096 0.1612903225806452 0  0.7096774193548387 0.1612903225806452 0  0.7419354838709677 0.1612903225806452 0  0.7741935483870968 0.1612903225806452 0  0.8064516129032258 0.1612903225806452 0  0.8387096774193548 0.1612903225806452 0  0.8709677419354839 0.1612903225806452 0  0.9032258064516129 0.1612903225806452 0  0.9354838709677419 0.1612903225806452 0  0.967741935483871 0.1612903225806452 0  1 0.1612903225806452 0  0 0.1935483870967742 0  0.03225806451612903 0.1935483870967742 0  0.06451612903225806 0.1935483870967742 0  0.09677419354838709 0.1935483870967742 0  0.1290322580645161 0.1935483870967742 0  0.1612903225806452 0.1935483870967742 0  0.1935483870967742 0.1935483870967742 0  0.2258064516129032 0.1935483870967742 0  0.2580645161290323 0.1935483870967742 0  0.2903225806451613 0.1935483870967742 0  0.3225806451612903 0.1935483870967742 0  0.3548387096774194 0.1935483870967742 0  0.3870967741935484 0.1935483870967742 0  0.4193548387096774 0.1935483870967742 0  0.4516129032258064 0.1935483870967742 0  0.4838709677419355 0.1935483870967742 0  0.5161290322580645 0.1935483870967742 0  0.5483870967741935 0.1935483870967742 0  0.5806451612903225 0.1935483870967742 0  0.6129032258064516 0.1935483870967742 0  0.6451612903225806 0.1935483870967742 0  0.6774193548387096 0.1935483870967742 0  0.7096774193548387 0.1935483870967742 0  0.7419354838709677 0.1935483870967742 0  0.7741935483870968 0.1935483870967742 0  0.8064516129032258 0.1935483870967742 0  0.8387096774193548 0.1935483870967742 0  0.8709677419354839 0.1935483870967742 0  0.9032258064516129 0.1935483870967742 0  0.9354838709677419 0.1935483870967742 0  0.967741935483871 0.1935483870967742 0  1 0.1935483870967742 0  0 0.2258064516129032 0  0.03225806451612903 0.2258064516129032 0  0.06451612903225806 0.2258064516129032 0  0.09677419354838709 0.2258064516129032 0  0.1290322580645161 0.2258064516129032 0  0.1612903225806452 0.2258064516129032 0  0.1935483870967742 0.2258064516129032 0  0.2258064516129032 0.2258064516129032 0  0.2580645161290323 0.2258064516129032 0  0.2903225806451613 0.2258064516129032 0  0.3225806451612903 0.2258064516129032 0  0.3548387096774194 0.2258064516129032 0  0.3870967741935484 0.2258064516129032 0  0.4193548387096774 0.2258064516129032 0  0.4516129032258064 0.2258064516129032 0  0.4838709677419355 0.2258064516129032 0  0.5161290322580645 0.2258064516129032 0  0.5483870967741935 0.2258064516129032 0  0.5806451612903225 0.2258064516129032 0  0.6129032258064516 0.2258064516129032 0  0.6451612903225806 0.2258064516129032 0  0.6774193548387096 0.2258064516129032 0  0.7096774193548387 0.2258064516129032 0  0.7419354838709677 0.2258064516129032 0  0.7741935483870968 0.2258064516129032 0  0.8064516129032258 0.2258064516129032 0  0.8387096774193548 0.2258064516129032 0  0.8709677419354839 0.2258064516129032 0  0.9032258064516129 0.2258064516129032 0  0.9354838709677419 0.2258064516129032 0  0.967741935483871 0.2258064516129032 0  1 0.225806451
[...]
<CellData  Scalars="f_44"> 
<DataArray  type="Float64"  Name="f_44"  format="ascii">3.2177875729598489e+00   2.6339459203201594e+00   5.6529053659039956e+00   1.3306716016057747e+00   5.2991538791917598e+00   3.5982457643839294e+00   3.0613377647837150e+00   4.4777267788546569e+00   5.6087845513822829e+00   6.6095395702095550e+00   7.1985067487867234e+00   7.6855706375392856e+00   7.9633007208594639e+00   8.1352108822860796e+00   7.4760835270905686e+00   7.5811605588985005e+00   7.1110484632248303e+00   7.0007096058432383e+00   6.5460689507659975e+00   6.0838085532163726e+00   5.6074729856969725e+00   5.1287140830913538e+00   4.5863093363594958e+00   4.0754576616824298e+00   3.4827185218029988e+00   2.8854466372952974e+00   2.5743736623692279e+00   8.0463783751993923e-01   1.0000000000000000e-02   1.0000000000000004e-02   9.6821304105288705e-02   1.0000000000000000e-02   1.0000000000000000e-02   1.0000000000000000e-02   1.0000000000000000e-02   1.7960341700552342e+00   1.0000000000000000e-02   1.0000000000000000e-02   1.0000000000000000e-02   1.0000000000000000e-02   1.0000000000000000e-02   1.0000000000000000e-02   1.0000000000000000e-02   1.0000000000000000e-02   1.0527514045552182e+00   1.0000000000000000e-02   1.0000000000000000e-02   1.0000000000000000e-02   1.0000000000000000e-02   4.8883685316779973e-01   1.0000000000000000e-02   1.0000000000000000e-02   1.0000000000000000e-02   1.0000000000000064e-02   1.0000000000000000e-02   1.0000000000000000e-02   1.0000000000000000e-02   1.0000000000000000e-02   1.3965987362803429e+00   1.0000000000000000e-02   4.2226316727868979e-01   2.0166604129857432e-01   1.0000000000000000e-02   1.3444713002792705e+00   1.6073570493791505e+00   1.5139109140793481e+00   1.3235803078073702e+00   1.1158300927314972e+00   7.2438842442305262e-01   5.5439330655749119e-01   7.3524083291526787e-01   1.0000000000000000e-02   1.0000000000000000e-02   1.0000000000000000e-02   4.5844485540862950e-01   4.1820249343762494e-01   3.8677925320495316e-01   1.0000000000000000e-02   1.0000000000000000e-02   1.0000000000000000e-02   1.0000000000000000e-02   1.0000000000000000e-02   1.6673771522903505e-01   1.8830258482064197e-01   1.9444621246109600e-01   2.0487828587474122e-01   1.0000000000000000e-02   5.9635614529696157e-01   4.7167333498193187e-01   1.0000000000000000e-02   3.5080165551286074e-01   3.6697236310621817e-01   1.0000000000000000e-02   1.0000000000000000e-02   2.9421057455430550e+00   2.2025743227011962e+00   1.7904683069564367e+00   1.4637487807234764e+00   1.1837259246472451e+00   9.1692507222566899e-01   6.6423389424437751e-01   4.2248802637911476e-01   4.0208001022765155e-01   1.0000000000000000e-02   1.0000000000000000e-02   1.0000000000000000e-02   1.0000000000000030e-02   1.0000000000000028e-02   1.0000000000000000e-02   3.8200712392727437e-01   2.7778155481977834e-01   2.4948907986660218e-01   2.5417917150546643e-01   2.6249712179181822e-01   2.7121540409466333e-01   2.6925683371847542e-01   2.7160137841328480e-01   3.4526723815664107e-01   3.2096051615697913e-01   3.1264607769592700e-01   3.6129845149307871e-01   3.1774415657131561e-01   7.9869403424991836e-01   1.0000000000000023e-02   6.7309925410367208e+00   3.2643370286612434e+00   2.4419428193327550e+00   1.8956440287959682e+00   1.5148519100345914e+00   1.2025407129669163e+00   9.3107668962719958e-01   6.8256432652497112e-01   5.3990801979533076e-01   1.0000000000000000e-02   5.1149431337557749e-01   1.0000000000000014e-02   1.0000000000000000e-02   7.2644693995036402e-01   4.0774581362995943e-01   4.6234247235045778e-01   3.7873686947366919e-01   3.5198668541685851e-01   3.5989883089613650e-01   3.5029911195796792e-01   3.4434769062532605e-01   3.3677751220289531e-01   3.3168249092359298e-01   3.2730196142644258e-01   3.3670292881120817e-01   3.2403406385614791e-01   3.3095525641024104e-01   3.2128129062046834e-01   3.0547338469643348e-01   1.0000000000000000e-02   3.3962464085783006e-01   1.0000000000000000e-02   3.0022867753142650e+00   2.2325847368680494e+00   1.7962637774874624e+00   1.4331021452624599e+00   1.1301373006043995e+00   8.5225521601995391e-01   5.7796290216556212e-01   3.6662797573693617e-01   1.0000000000000000e-02   1.0000000000000000e-02   1.3372206938745765e+00   6.9047317041041112e-01   4.5913906563609896e-01   4.7116729844533556e-01   4.9258720455185212e-01   4.5911360194785694e-01   4.5507487888454368e-01   4.3560843285713718e-01   4.2284439840965210e-01   4.0769546437903731e-01   3.9336566781432269e-01   3.7928799504613941e-01   3.6863487626897234e-01   3.5526077716039861e-01   3.4465215681274725e-01   3.2812588255878422e-01   3.0697209075490522e-01   2.6186229226634011e-01   1.9635674700392125e-01   1.7732319501323737e-01   1.0000000000000000e-02   1.5347364531368841e+00   1.7959016194848447e+00   1.5290700940781401e+00   1.2311835625847638e+00   9.4309544113499921e-01   6.4524622899876538e-01   1.0000000000000000e-02   1.0000000000000011e-02   1.0000000000000018e-02   7.8122640812795729e-01   6.5154222789718463e-01   5.4979798948313763e-01   5.9774676028360652e-01   5.8379803194694502e-01   5.6468916259702828e-01   5.5058917432164167e-01   5.2577168833407484e-01   5.0556453884961017e-01   4.8316669370658882e-01   4.6192114164626280e-01   4.4082407210378960e-01   4.2057823508670200e-01   4.0051837017132313e-01   3.8055216366261457e-01   3.5894759781183583e-01   3.3416335836898464e-01   3.0263052447055433e-01   2.6412786978214664e-01   2.0808665548027891e-01   5.0771843980786791e-01   1.0000000000000000e-02   9.7025825824841661e-01   1.1800146319560068e+00   1.1461273010184467e+00   9.4226625685118337e-01   5.8653895887086227e-01   1.0000000000000000e-02   1.0000000000000000e-02   1.4456030821168309e+00   1.4071722538312172e+00   6.3428261216854165e-01   7.2943609282420807e-01   7.1788627268989247e-01   6.9142499703409577e-01   6.7165024786167593e-01   6.4808309845118983e-01   6.2026674047934127e-01   5.9262320056363504e-01   5.6401487473686662e-01   5.3631883259042334e-01   5.0897759436846790e-01   4.8229646978161983e-01   4.5605383563442004e-01   4.2994754850402211e-01   4.0337044649000353e-01   3.7522291865593388e-01   3.4417932556347097e-01   3.0845721649880464e-01   2.6191632605277521e-01   2.3897711984415818e-01   1.0000000000000000e-02   1.0000000000000011e-02   6.0047810168819293e-01   6.7763292032504396e-01   4.7216495857035912e-01   1.0000000000000000e-02   1.0000000000000028e-02   1.0420679410328242e+00   8.7627719537410886e-01   8.5065234108602261e-01   8.8543868624683264e-01   8.6214423886994940e-01   8.3645694574456608e-01   8.1765177458702787e-01   7.8762815829016330e-01   7.5399931405233755e-01   7.1967841485946504e-01   6.8504374085391595e-01   6.5020432426362573e-01   6.1601525857646744e-01   5.8264920277129784e-01   5.5019915137674835e-01   5.1851303797518500e-01   4.8735100324612690e-01   4.5630187344929285e-01   4.2472955615641217e-01   3.9178420218379739e-01   3.5621438710007919e-01   3.1634120493869899e-01   2.7695707731631108e-01   1.7816658615289299e-01   3.8826483406245066e-01   1.0000000000000000e-02   1.0000000000000016e-02   1.0000000000000011e-02   1.0885296233667403e+00   9.5912548399596731e-01   1.2118699944532243e+00   1.0638729140705394e+00   1.0673154952068780e+00   1.0689327564922093e+00   1.0361904585602544e+00   1.0018992775743261e+00   9.5598225394453051e-01   9.1500345707307718e-01   8.7162655381148790e-01   8.2776282604139328e-01   7.8442005742780085e-01   7.4213398078336812e-01   7.0109055897794459e-01   6.6137908709056348e-01   6.2306066373092062e-01   5.8603221512583759e-01   5.5003758648015477e-01   5.1473187628323436e-01   4.7965110314996334e-01   4.4420010428850304e-01   4.0753809473972302e-01   3.6875460683853556e-01   3.2678027745523680e-01   2.7112077438335075e-01   2.3850424148121149e-01   1.0000000000000000e-02   1.0000000000000000e-02   1.0000000000000018e-02   9.5024066716558064e-01   1.2958855416358839e+00   1.3057154529259634e+00   1.3882662857893626e+00   1.3181190112102907e+00   1.2996972491746517e+00   1.2430554819049524e+00   1.1856919083810731e+00   1.1234359426527802e+00   1.0624557591641766e+00   1.0029012653032201e+00   9.4682935398664025e-01   8.9274923549049146e-01   8.4109173850242247e-01   7.9188937362525147e-01   7.4505086698724710e-01   7.0038193736248067e-01   6.5766722357812968e-01   6.1665411710154250e-01   5.7699119680274058e-01   5.3823759668664994e-01   4.9988999641447596e-01   4.6134620660437825e-01   4.2187374479420275e-01   3.8042899168968075e-01   3.3502444416691279e-01   2.8899308904590942e-01   2.2161090455304508e-01   1.0000000000000000e-02   1.4772094542656056e+00   1.0000000000000000e-02   1.2971352440749280e+00   1.5839090909699376e+00   1.7186301973452476e+00   1.6632000295695912e+00   1.5938413090128905e+00   1.4938251218850629e+00   1.4061033554428279e+00   1.3159388299522325e+00   1.2315309517507713e+00   1.1525293051311611e+00   1.0792562573094866e+00   1.0112907058230001e+00   9.4813795546782642e-01   8.8909255697459055e-01   8.3379469649379634e-01   7.8186055888251227e-01   7.3287320565952840e-01   6.8639810718333183e-01   6.4202846872580588e-01   5.9932287074492485e-01   5.5776954588070760e-01   5.1681696701178192e-01   4.7586820875134944e-01   4.3415860079501450e-01   3.9079552734441669e-01   3.4497686558485174e-01   2.8792148159141018e-01   2.2914785720203606e-01   3.0273791447753745e-01   3.2916920515062840e+00   1.0000000000000000e-02   2.1379983177945667e+00   2.1618350560339485e+00   2.0746907201981575e+00   1.9561318745223393e+00   1.8085371604397793e+00   1.6696752825317662e+00   1.5407926027122110e+00   1.4254581003661075e+00   1.3207939797746615e+00   1.2264462606354976e+00   1.1411328046919278e+00   1.0636160797126226e+00   9.9276664855438912e-01   9.2758238328677756e-01   8.6724729863062366e-01   8.1111743544648174e-01   7.5859011463044568e-01   7.0906945709844371e-01   6.6201554326977130e-01   6.1690762197421645e-01   5.7317873976111799e-01   5.3023820955862233e-01   4.8747957919733198e-01   4.4417912216996935e-01   3.9928023043991268e-01   3.5115259723490394e-01   3.0025205071900285e-01   2.3218551857110648e-01   1.7144849806654497e-01   1.0000000000000000e-02   2.2350991585759190e+00   2.9412210714268654e+00   2.7103255402265729e+00   2.4458974765291113e+00   2.1975934675616084e+00   1.9867735587162223e+00   1.8035471539286585e+00   1.6454853209132660e+00   1.5081262616802971e+00   1.3878414702748874e+00   1.2815509074644980e+00   1.1869845480032595e+00   1.1022027405667150e+00   1.0255744488498433e+00   9.5575456526067748e-01   8.9164895329599791e-01   8.3239026295057705e-01   7.7723228090155516e-01   7.2546484086480945e-01   6.7644864260198645e-01   6.2960158505758590e-01   5.8431797884936965e-01   5.3997926622428549e-01   4.9597748534082670e-01   4.5165419252027073e-01   4.0600997540791778e-01   3.5700838098575494e-01   3.0508114405977127e-01   2.4538143209868982e-01   1.7514875241368308e-01   1.0000000000000000e-02   4.9286219322134572e+00   3.7570107930302474e+00   3.1570826013057292e+00   2.7021915540307946e+00   2.3682676469149921e+00   2.1040282120582243e+00   1.8899638167086148e+00   1.7115154313223104e+00   1.5600231621364913e+00   1.4294979254141020e+00   1.3156160339055034e+00   1.2152208808386131e+00   1.1258818868950680e+00   1.0456512592162233e+00   9.7294998947801525e-01   9.0650610689128708e-01   8.4531485016906560e-01   7.8853608520792406e-01   7.3538997932698125e-01   6.8517698853002784e-01   6.3727552691354916e-01   5.9105841227203182e-01   5.4589258576243738e-01   5.0118426797344129e-01   4.5628622704221183e-01   4.1053773733600113e-01   3.6372226532298502e-01   3.0064391777600075e-01   2.5660838828529858e-01   1.6645473553801640e-01   1.0000000000000000e+01   5.6328948577689664e+00   4.1603267028721076e+00   3.3251119772012863e+00   2.8024338364262613e+00   2.4276718184179304e+00   2.1454868120393318e+00   1.9198973993008617e+00   1.7341571812140837e+00   1.5777187459287250e+00   1.4436460365166992e+00   1.3271474640931245e+00   1.2247587526825034e+00   1.1338675203378872e+00   1.0524114433109832e+00   9.7873223389311215e-01   9.1149603293111003e-01   8.4965095437076288e-01   7.9232461919603847e-01   7.3871386718163889e-01   6.8809860914852605e-01   6.3984411700440935e-01   5.9331540174186559e-01   5.4787505956070492e-01   5.0292308634908978e-01   4.5790302169415031e-01   4.1204880877445677e-01   3.6445783315577579e-01   3.3307532252524968e-01   4.6658638154720034e-01   1.0000000000000000e-02   1.0000000000000000e-02   4.9286218155047417e+00   3.7570107446312364e+00   3.1570825686841042e+00   2.7021915285261064e+00   2.3682676269545966e+00   2.1040281962543874e+00   1.8899638040493230e+00   1.7115154209092385e+00   1.5600231530588453e+00   1.4294979168020447e+00   1.3156160253655231e+00   1.2152208722780868e+00   1.1258818785972566e+00   1.0456512514215857e+00   9.7294998234032504e-01   9.0650610022429234e-01   8.4531484349036456e-01   7.8853607791231750e-01   7.3538997100803360e-01   6.8517697927166799e-01   6.3727551741020760e-01   5.9105840287842781e-01   5.4589257570094674e-01   5.0118424885517454e-01   4.5628619050944508e-01   4.1053764819108751e-01   3.6372206456812417e-01   3.0064377339302012e-01   2.5660883083864860e-01   1.6645772813084650e-01   1.0000000000000000e-02   2.2350990330789706e+00   2.9412210115408959e+00   2.7103254773297092e+00   2.4458974305912324e+00   2.1975934323747341e+00   1.9867735301752862e+00   1.8035471304738431e+00   1.6454853012538171e+00   1.5081262437725058e+00   1.3878414530695111e+00   1.2815508901659496e+00   1.1869845311346994e+00   1.1022027243155885e+00   1.0255744339041324e+00   9.5575455161112888e-01   8.9164894047854415e-01   8.3239024993838739e-01   7.7723226657542521e-01   7.2546482462169759e-01   6.7644862487530877e-01   6.2960156713496374e-01   5.8431796227622501e-01   5.3997924789021268e-01   4.9597746043829138e-01   4.5165413472728244e-01   4.0600987933267807e-01   3.5700813115313029e-01   3.0508057784674047e-01   2.4538011194987644e-01   1.7514424892604907e-01   3.2916920999628347e+00   1.0000000000000000e-02   2.1379981863508202e+00   2.1618349889369242e+00   2.0746906675384462e+00   1.9561318324229726e+00   1.8085371232412386e+00   1.6696752520437343e+00   1.5407925742508113e+00   1.4254580738290119e+00   1.3207939527762178e+00   1.2264462348941347e+00   1.1411327796710080e+00   1.0636160567285247e+00   9.9276662758583112e-01   9.2758236425004459e-01   8.6724728044214727e-01   8.1111741653406000e-01   7.5859009367710184e-01   7.0906943368897823e-01   6.6201551844827244e-01   6.1690759792587857e-01   5.7317871722123992e-01   5.3023818660118582e-01   4.8747953921479492e-01   4.4417906268795010e-01   3.9928008296338602e-01   3.5115237962164320e-01   3.0025119917641713e-01   2.3218344661679302e-01   1.7144423169329956e-01   1.4772092257247926e+00   1.0000000000000000e-02   1.2971351759910625e+00   1.5839090745712918e+00   1.7186301447624537e+00   1.6631999871222742e+00   1.5938412664804551e+00   1.4938250853136206e+00   1.4061033158068461e+00   1.3159387918697949e+00   1.2315309140123700e+00   1.1525292707099850e+00   1.0792562262744259e+00   1.0112906774286261e+00   9.4813793030382276e-01   8.8909253353328555e-01   8.3379467340859670e-01   7.8186053423834478e-01   7.3287317849978462e-01   6.8639807777465645e-01   6.4202843903763895e-01   5.9932284295132632e-01   5.5776952017604642e-01   5.1681693438277221e-01   4.7586815599026677e-01   4.3415848541084356e-01   3.9079537061573622e-01   3.4497638170873746e-01   2.8792037776511126e-01   2.2914525629579077e-01   3.0273571064653093e-01   1.0000000000000000e-02   1.0000000000000009e-02   9.5024051580362923e-01   1.2958854212537421e+00   1.3057153676354585e+00   1.3882662240844947e+00   1.3181189436783718e+00   1.2996971990996686e+00   1.2430554219630541e+00   1.1856918545539410e+00   1.1234358921309853e+00   1.0624557210390575e+00   1.0029012295432498e+00   9.4682932322512026e-01   8.9274920652181589e-01   8.4109171083834366e-01   7.9188934503412567e-01   7.4505083619172774e-01   7.0038190467541472e-01   6.5766718991016448e-01   6.1665408534231325e-01   5.7699116845736997e-01   5.3823756944776691e-01   4.9988996312958556e-01   4.6134614720146855e-01   4.2187365929076537e-01   3.8042880472123242e-01   3.3502427752790293e-01   2.8899207688855333e-01   2.2162092726548061e-01   1.0000000000000000e-02   1.0000000000000019e-02   1.0000000000000014e-02   1.0000000000000002e-02   1.0885291625664959e+00   9.5912526817871535e-01   1.2118697997364962e+00   1.0638727978212190e+00   1.0673153754188323e+00   1.0689326731068713e+00   1.0361903840980666e+00   1.0018992288745148e+00   9.5598220992479854e-01   9.1500342273700486e-01   8.7162651828204252e-01   8.2776279152761267e-01   7.8442002414644951e-01   7.4213394359352958e-01   7.0109052241480552e-01   6.6137905032639488e-01   6.2306062914293414e-01   5.8603218495996401e-01   5.5003756005317694e-01   5.1473184904428027e-01   4.7965106265062551e-01   4.4420004162028381e-01   4.0753798466138147e-01   3.6875447923259846e-01   3.2677984832140378e-01   2.7112055888023628e-01   2.3850927175156678e-01   1.0000000000000000e-02   1.0000000000000005e-02   6.0047822631693371e-01   6.7763312119742269e-01   4.7216563661196354e-01   1.0000000000000000e-02   1.0000000000000000e-02   1.0420672404753790e+00   8.7627692149510095e-01   8.5065222626393255e-01   8.8543856951761557e-01   8.6214422118770984e-01   8.3645688537619545e-01   8.1765172532124974e-01   7.8762812049049180e-01   7.5399926415383556e-01   7.1967837277906599e-01   6.8504369216313021e-01   6.5020428494669913e-01   6.1601522306176870e-01   5.8264917216727841e-01   5.5019912653930569e-01   5.1851301431947150e-01   4.8735097416077944e-01   4.5630183010524755e-01   4.2472948546512185e-01   3.9178409995061270e-01   3.5621416655342975e-01   3.1634092850389722e-01   2.7695675947550213e-01   1.7816931210556264e-01   3.8826445460257680e-01   1.0000000000000000e-02   9.7025835314891873e-01   1.1800147054705259e+00   1.1461273817905477e+00   9.4226647234372019e-01   5.8653925047212896e-01   1.0000000000000000e-02   1.0000000000000000e-02   1.4456026109749929e+00   1.4071718425138682e+00   6.3428253940165602e-01   7.2943599210827348e-01   7.1788620136496040e-01   6.9142494411420508e-01   6.7165017341234878e-01   6.4808305544814149e-01   6.2026667510629152e-01   5.9262317894365624e-01   5.6401484530336654e-01   5.3631881604761267e-01   5.0897757199652915e-01   4.8229644511223330e-01   4.5605379679501090e-01   4.2994748956868756e-01   4.0337036863209980e-01   3.7522278936299380e-01   3.4417916412014626e-01   3.0845680947146581e-01   2.6191629373441738e-01   2.3897775263142068e-01   1.0000000000000000e-02   1.0000000000000000e-02   1.5347365134265492e+00   1.7959016767750373e+00   1.5290701599012952e+00   1.2311836738116049e+00   9.4309561594175306e-01   6.4524584906549520e-01   1.0000000000000000e-02   1.0000000000000007e-02   1.0000000000000002e-02   7.8122603940337432e-01   6.5154203368380270e-01   5.4979794728207798e-01   5.9774672003394436e-01   5.8379796454802046e-01   5.6468912389848891e-01   5.5058911833274560e-01   5.2577170129904105e-01   5.0556452705570154e-01   4.8316668686155523e-01   4.6192110352368615e-01   4.4082403811554466e-01   4.2057818044106898e-01   4.0051831346651345e-01   3.8055210217213187e-01   3.5894752393707657e-01   3.3416321020457357e-01   3.0263040305808436e-01   2.6412774629771057e-01   2.0808753577601483e-01   5.0771790044229625e-01   1.0000000000000000e-02   3.0022868096965514e+00   2.2325848162784707e+00   1.7962638525893255e+00   1.4331022445838375e+00   1.1301373880243997e+00   8.5225501255115899e-01   5.7796318013219428e-01   3.6662749126891114e-01   1.0000000000000000e-02   1.0000000000000000e-02   1.3372201215722610e+00   6.9047302649905606e-01   4.5913898098461792e-01   4.7116724679454475e-01   4.9258720467793188e-01   4.5911344945933469e-01   4.5507494254158160e-01   4.3560837209575010e-01   4.2284439046688937e-01   4.0769536500623343e-01   3.93365633360120