<?xml version="1.0"?>
<VTKFile type="UnstructuredGrid"  version="0.1"  >
<UnstructuredGrid>
<Piece  NumberOfPoints="1024" NumberOfCells="961">
<Points>
<DataArray  type="Float64"  NumberOfComponents="3"  format="ascii">0 0 0  0.03225806451612903 0 0  0.06451612903225806 0 0  0.09677419354838709 0 0  0.1290322580645161 0 0  0.1612903225806452 0 0  0.1935483870967742 0 0  0.2258064516129032 0 0  0.2580645161290323 0 0  0.2903225806451613 0 0  0.3225806451612903 0 0  0.3548387096774194 0 0  0.3870967741935484 0 0  0.4193548387096774 0 0  0.4516129032258064 0 0  0.4838709677419355 0 0  0.5161290322580645 0 0  0.5483870967741935 0 0  0.5806451612903225 0 0  0.6129032258064516 0 0  0.6451612903225806 0 0  0.6774193548387096 0 0  0.7096774193548387 0 0  0.7419354838709677 0 0  0.7741935483870968 0 0  0.8064516129032258 0 0  0.8387096774193548 0 0  0.8709677419354839 0 0  0.9032258064516129 0 0  0.9354838709677419 0 0  0.967741935483871 0 0  1 0 0  0 0.03225806451612903 0  0.03225806451612903 0.03225806451612903 0  0.06451612903225806 0.03225806451612903 0  0.09677419354838709 0.03225806451612903 0  0.1290322580645161 0.03225806451612903 0  0.1612903225806452 0.03225806451612903 0  0.1935483870967742 0.03225806451612903 0  0.2258064516129032 0.03225806451612903 0  0.2580645161290323 0.03225806451612903 0  0.2903225806451613 0.03225806451612903 0  0.3225806451612903 0.03225806451612903 0  0.3548387096774194 0.03225806451612903 0  0.3870967741935484 0.03225806451612903 0  0.4193548387096774 0.03225806451612903 0  0.4516129032258064 0.03225806451612903 0  0.4838709677419355 0.03225806451612903 0  0.5161290322580645 0.03225806451612903 0  0.5483870967741935 0.03225806451612903 0  0.5806451612903225 0.03225806451612903 0  0.6129032258064516 0.03225806451612903 0  0.6451612903225806 0.03225806451612903 0  0.6774193548387096 0.03225806451612903 0  0.7096774193548387 0.03225806451612903 0  0.7419354838709677 0.03225806451612903 0  0.7741935483870968 0.03225806451612903 0  0.8064516129032258 0.03225806451612903 0  0.8387096774193548 0.03225806451612903 0  0.8709677419354839 0.03225806451612903 0  0.9032258064516129 0.03225806451612903 0  0.9354838709677419 0.03225806451612903 0  0.967741935483871 0.03225806451612903 0  1 0.03225806451612903 0  0 0.06451612903225806 0  0.03225806451612903 0.06451612903225806 0  0.06451612903225806 0.06451612903225806 0  0.09677419354838709 0.06451612903225806 0  0.1290322580645161 0.06451612903225806 0  0.1612903225806452 0.06451612903225806 0  0.1935483870967742 0.06451612903225806 0  0.2258064516129032 0.06451612903225806 0  0.2580645161290323 0.06451612903225806 0  0.2903225806451613 0.06451612903225806 0  0.3225806451612903 0.06451612903225806 0  0.3548387096774194 0.06451612903225806 0  0.3870967741935484 0.06451612903225806 0  0.4193548387096774 0.06451612903225806 0  0.4516129032258064 0.06451612903225806 0  0.4838709677419355 0.06451612903225806 0  0.5161290322580645 0.06451612903225806 0  0.5483870967741935 0.06451612903225806 0  0.5806451612903225 0.06451612903225806 0  0.6129032258064516 0.06451612903225806 0  0.6451612903225806 0.06451612903225806 0  0.6774193548387096 0.06451612903225806 0  0.7096774193548387 0.06451612903225806 0  0.7419354838709677 0.06451612903225806 0  0.7741935483870968 0.06451612903225806 0  0.8064516129032258 0.06451612903225806 0  0.8387096774193548 0.06451612903225806 0  0.8709677419354839 0.06451612903225806 0  0.9032258064516129 0.06451612903225806 0  0.9354838709677419 0.06451612903225806 0  0.967741935483871 0.06451612903225806 0  1 0.06451612903225806 0  0 0.09677419354838709 0  0.03225806451612903 0.09677419354838709 0  0.06451612903225806 0.09677419354838709 0  0.09677419354838709 0.09677419354838709 0  0.1290322580645161 0.09677419354838709 0  0.1612903225806452 0.09677419354838709 0  0.1935483870967742 0.09677419354838709 0  0.2258064516129032 0.09677419354838709 0  0.2580645161290323 0.09677419354838709 0  0.2903225806451613 0.09677419354838709 0  0.3225806451612903 0.09677419354838709 0  0.3548387096774194 0.09677419354838709 0  0.3870967741935484 0.09677419354838709 0  0.4193548387096774 0.09677419354838709 0  0.4516129032258064 0.09677419354838709 0  0.4838709677419355 0.09677419354838709 0  0.5161290322580645 0.09677419354838709 0  0.5483870967741935 0.09677419354838709 0  0.5806451612903225 0.09677419354838709 0  0.6129032258064516 0.09677419354838709 0  0.6451612903225806 0.09677419354838709 0  0.6774193548387096 0.09677419354838709 0  0.7096774193548387 0.09677419354838709 0  0.7419354838709677 0.09677419354838709 0  0.7741935483870968 0.09677419354838709 0  0.8064516129032258 0.09677419354838709 0  0.8387096774193548 0.09677419354838709 0  0.8709677419354839 0.09677419354838709 0  0.9032258064516129 0.09677419354838709 0  0.9354838709677419 0.09677419354838709 0  0.967741935483871 0.09677419354838709 0  1 0.09677419354838709 0  0 0.1290322580645161 0  0.03225806451612903 0.1290322580645161 0  0.06451612903225806 0.1290322580645161 0  0.09677419354838709 0.1290322580645161 0  0.1290322580645161 0.1290322580645161 0  0.1612903225806452 0.1290322580645161 0  0.1935483870967742 0.1290322580645161 0  0.2258064516129032 0.1290322580645161 0  0.2580645161290323 0.1290322580645161 0  0.2903225806451613 0.1290322580645161 0  0.3225806451612903 0.1290322580645161 0  0.3548387096774194 0.1290322580645161 0  0.3870967741935484 0.1290322580645161 0  0.4193548387096774 0.1290322580645161 0  0.4516129032258064 0.1290322580645161 0  0.4838709677419355 0.1290322580645161 0  0.5161290322580645 0.1290322580645161 0  0.5483870967741935 0.1290322580645161 0  0.5806451612903225 0.1290322580645161 0  0.6129032258064516 0.1290322580645161 0  0.6451612903225806 0.1290322580645161 0  0.6774193548387096 0.1290322580645161 0  0.7096774193548387 0.1290322580645161 0  0.7419354838709677 0.1290322580645161 0  0.7741935483870968 0.1290322580645161 0  0.8064516129032258 0.1290322580645161 0  0.8387096774193548 0.1290322580645161 0  0.8709677419354839 0.1290322580645161 0  0.9032258064516129 0.1290322580645161 0  0.9354838709677419 0.1290322580645161 0  0.967741935483871 0.1290322580645161 0  1 0.1290322580645161 0  0 0.1612903225806452 0  0.03225806451612903 0.1612903225806452 0  0.06451612903225806 0.1612903225806452 0  0.09677419354838709 0.1612903225806452 0  0.1290322580645161 0.1612903225806452 0  0.1612903225806452 0.1612903225806452 0  0.1935483870967742 0.1612903225806452 0  0.2258064516129032 0.1612903225806452 0  0.2580645161290323 0.1612903225806452 0  0.2903225806451613 0.1612903225806452 0  0.3225806451612903 0.1612903225806452 0  0.3548387096774194 0.1612903225806452 0  0.3870967741935484 0.1612903225806452 0  0.4193548387096774 0.1612903225806452 0  0.4516129032258064 0.1612903225806452 0  0.4838709677419355 0.1612903225806452 0  0.5161290322580645 0.1612903225806452 0  0.5483870967741935 0.1612903225806452 0  0.5806451612903225 0.1612903225806452 0  0.6129032258064516 0.1612903225806452 0  0.6451612903225806 0.1612903225806452 0  0.6774193548387096 0.1612903225806452 0  0.7096774193548387 0.1612903225806452 0  0.7419354838709677 0.1612903225806452 0  0.7741935483870968 0.1612903225806452 0  0.8064516129032258 0.1612903225806452 0  0.8387096774193548 0.1612903225806452 0  0.8709677419354839 0.1612903225806452 0  0.9032258064516129 0.1612903225806452 0  0.9354838709677419 0.1612903225806452 0  0.967741935483871 0.1612903225806452 0  1 0.1612903225806452 0  0 0.1935483870967742 0  0.03225806451612903 0.1935483870967742 0  0.06451612903225806 0.1935483870967742 0  0.09677419354838709 0.1935483870967742 0  0.1290322580645161 0.1935483870967742 0  0.1612903225806452 0.1935483870967742 0  0.1935483870967742 0.1935483870967742 0  0.2258064516129032 0.1935483870967742 0  0.2580645161290323 0.1935483870967742 0  0.2903225806451613 0.1935483870967742 0  0.3225806451612903 0.1935483870967742 0  0.3548387096774194 0.1935483870967742 0  0.3870967741935484 0.1935483870967742 0  0.4193548387096774 0.1935483870967742 0  0.4516129032258064 0.1935483870967742 0  0.4838709677419355 0.1935483870967742 0  0.5161290322580645 0.1935483870967742 0  0.5483870967741935 0.1935483870967742 0  0.5806451612903225 0.1935483870967742 0  0.6129032258064516 0.1935483870967742 0  0.6451612903225806 0.1935483870967742 0  0.6774193548387096 0.1935483870967742 0  0.7096774193548387 0.1935483870967742 0  0.7419354838709677 0.1935483870967742 0  0.7741935483870968 0.1935483870967742 0  0.8064516129032258 0.1935483870967742 0  0.8387096774193548 0.1935483870967742 0  0.8709677419354839 0.1935483870967742 0  0.9032258064516129 0.1935483870967742 0  0.9354838709677419 0.1935483870967742 0  0.967741935483871 0.1935483870967742 0  1 0.1935483870967742 0  0 0.2258064516129032 0  0.03225806451612903 0.2258064516129032 0  0.06451612903225806 0.2258064516129032 0  0.09677419354838709 0.2258064516129032 0  0.1290322580645161 0.2258064516129032 0  0.1612903225806452 0.2258064516129032 0  0.1935483870967742 0.2258064516129032 0  0.2258064516129032 0.2258064516129032 0  0.2580645161290323 0.2258064516129032 0  0.2903225806451613 0.2258064516129032 0  0.3225806451612903 0.2258064516129032 0  0.3548387096774194 0.2258064516129032 0  0.3870967741935484 0.2258064516129032 0  0.4193548387096774 0.2258064516129032 0  0.4516129032258064 0.2258064516129032 0  0.4838709677419355 0.2258064516129032 0  0.5161290322580645 0.2258064516129032 0  0.5483870967741935 0.2258064516129032 0  0.5806451612903225 0.2258064516129032 0  0.6129032258064516 0.2258064516129032 0  0.6451612903225806 0.2258064516129032 0  0.6774193548387096 0.2258064516129032 0  0.7096774193548387 0.2258064516129032 0  0.7419354838709677 0.2258064516129032 0  0.7741935483870968 0.2258064516129032 0  0.8064516129032258 0.2258064516129032 0  0.8387096774193548 0.2258064516129032 0  0.8709677419354839 0.2258064516129032 0  0.9032258064516129 0.2258064516129032 0  0.9354838709677419 0.2258064516129032 0  0.967741935483871 0.2258064516129032 0  1 0.225806451
[...]
<PointData  Scalars="f_39"> 
<DataArray  type="Float64"  Name="f_39"  format="ascii">0.0000000000000000e+00  -3.0709822745931165e-05  -1.2787903201994107e-04  -1.4616397488775737e-04  2.3346845441999623e-04  1.1549691223435147e-03  2.6446500440315858e-03  4.7107662899685491e-03  7.3045068523577665e-03  1.0345503474752622e-02  1.3687941749869936e-02  1.7184715479088546e-02  2.0687060354144672e-02  2.4038325601728583e-02  2.7071614141938007e-02  2.9619209074234189e-02  3.1514797438351123e-02  3.2601645633716453e-02  3.2736413052182591e-02  3.1790108248678561e-02  2.9647901634507794e-02  2.6195542643288328e-02  2.1316542255271805e-02  1.4897198188289974e-02  6.8295423887423578e-03  -2.9751678560769757e-03  -1.4591808504359531e-02  -2.7761677721460598e-02  -4.2667550660457951e-02  -5.8566494971657751e-02  -9.9329241769722881e-02  -1.6366050413504682e-01  0.0000000000000000e+00  -4.5481380297628668e-05  -6.4684348082757475e-05  1.2000024806670123e-04  6.7076461528980469e-04  1.6413608886450127e-03  3.0268677089894092e-03  4.8396394314141975e-03  7.0356193207137766e-03  9.5437600565020896e-03  1.2243497169218636e-02  1.5001918834555848e-02  1.7672402316687631e-02  2.0091072167130627e-02  2.2086344273474400e-02  2.3488704931345628e-02  2.4129360668033124e-02  2.3852678574075581e-02  2.2519931155040293e-02  2.0001581626117950e-02  1.6171835526153155e-02  1.0901140169166060e-02  4.0529987900395741e-03  -4.5124105667234647e-03  -1.4941568297842375e-02  -2.7370470161247922e-02  -4.1914985700220585e-02  -5.8817788699390014e-02  -7.8451580752188582e-02  -1.0173528780395043e-01  -1.4005723712791437e-01  -1.9163907017788534e-01  0.0000000000000000e+00  -3.9050633942697457e-05  -5.1508608711232646e-06  2.7311470193974524e-04  8.6608714145424608e-04  1.7951673563035607e-03  3.0613530160977934e-03  4.6662007327106019e-03  6.5750957387631249e-03  8.7805200310799632e-03  1.1001946501608219e-02  1.2926234342907354e-02  1.4991702541866223e-02  1.7069369270560207e-02  1.8271541506361788e-02  1.8487875983045781e-02  1.7872261254784454e-02  1.6386653477436397e-02  1.3761694909394519e-02  9.8106049123605817e-03  4.2601471711031852e-03  -2.9475949622720715e-03  -1.1687181044282666e-02  -2.2239299186636856e-02  -3.4848552307129119e-02  -4.9732933237323099e-02  -6.7099859838452292e-02  -8.7346227515180133e-02  -1.1123804394898038e-01  -1.3982635705964039e-01  -1.7764699857802460e-01  -2.2384384066482577e-01  0.0000000000000000e+00  6.5252479356933529e-06  1.0969697493539937e-04  4.1436096615951005e-04  9.6700194035637967e-04  1.8072147418500073e-03  2.9494729409179623e-03  4.3996248758117109e-03  6.1544677552773644e-03  8.2729675651465277e-03  1.0686100188134744e-02  1.2202992513679759e-02  1.3054154844356083e-02  1.4015658451704053e-02  1.4161642199524366e-02  1.3236286018389217e-02  1.1428346456651948e-02  8.7421416219206922e-03  4.8871389147439760e-03  -3.8382386518352372e-04  -7.3851435051504790e-03  -1.6149676054306637e-02  -2.6512080018944444e-02  -3.8767169725892135e-02  -5.3221620766004493e-02  -7.0164804769152156e-02  -8.9892564912324460e-02  -1.1287588621314931e-01  -1.3988935945401831e-01  -1.7214765577391755e-01  -2.1064741833946568e-01  -2.5454106024903106e-01  0.0000000000000000e+00  3.1049203985404652e-05  1.5958166087250269e-04  4.5301233089595460e-04  9.6186727942439458e-04  1.7190169019966153e-03  2.7544744798080690e-03  4.0936213434431632e-03  5.7921798332338931e-03  7.8410642020825972e-03  1.0639833110298379e-02  1.1714396456877024e-02  1.0757470183181884e-02  9.9963889609021323e-03  8.8176861683486856e-03  6.8852505900872767e-03  4.0498487127370187e-03  2.0004272269566340e-04  -4.8367663602039597e-03  -1.1278569827632649e-02  -1.9319555001513909e-02  -2.9076490986513950e-02  -4.0660574222185344e-02  -5.4265381823822310e-02  -7.0168269310773163e-02  -8.8677096484481785e-02  -1.1016354323142616e-01  -1.3513148146913964e-01  -1.6427767070812485e-01  -1.9836330838447369e-01  -2.3800655421195469e-01  -2.8270626633188817e-01  0.0000000000000000e+00  2.1711036880960047e-05  1.3386844732620064e-04  4.0682853961896272e-04  8.7362194408896346e-04  1.5554519010171795e-03  2.4899224461319845e-03  3.7569788609442866e-03  5.3419385741500670e-03  7.4558166584129722e-03  9.2645347840038406e-03  8.9432498066729163e-03  7.3223798920608501e-03  5.6314451745012820e-03  3.4457859249621713e-03  5.5197230978733464e-04  -3.2304053734196194e-03  -8.0567968618715843e-03  -1.4090677065707435e-02  -2.1507801227633062e-02  -3.0479883544423932e-02  -4.1163673695919743e-02  -5.3726511468875859e-02  -6.8378212947645192e-02  -8.5378021843291213e-02  -1.0504223825940474e-01  -1.2776229801101130e-01  -1.5404028950975618e-01  -1.8450413077138625e-01  -2.1988592389856676e-01  -2.6095666384494715e-01  -3.0799962036129436e-01  0.0000000000000000e+00  -2.3955385294935354e-05  4.0317591817888289e-05  3.0570374428708687e-04  7.4345950766464592e-04  1.3614631092058679e-03  2.1784550769882892e-03  3.2860034974346490e-03  4.8848805241928422e-03  6.3812516128839572e-03  6.3867384123875272e-03  5.1659633512265981e-03  3.4460664799091595e-03  1.1061507999454928e-03  -1.8344061459393218e-03  -5.5293234945026845e-03  -1.0130782277575811e-02  -1.5790008844221465e-02  -2.2660720906845171e-02  -3.0901937237285133e-02  -4.0675361942577884e-02  -5.2147171035248394e-02  -6.5498594564046095e-02  -8.0940615290476678e-02  -9.8726380637367328e-02  -1.1916354868582504e-01  -1.4263410729233511e-01  -1.6962014255184238e-01  -2.0072920179418990e-01  -2.3677254968068634e-01  -2.7879384199319124e-01  -3.2804136076196666e-01  0.0000000000000000e+00  -9.7512745115693210e-05  -1.0876749759988314e-04  1.9245250710651313e-04  6.5678887373077951e-04  1.1894892680559895e-03  1.9314272323017574e-03  2.7708538777517179e-03  3.7438734770008394e-03  4.0094240245539597e-03  3.1310761467001819e-03  1.6499434731986199e-03  -5.1829479191933619e-04  -3.3396483535854259e-03  -6.8807849566038023e-03  -1.1233144695358660e-02  -1.6521439468967659e-02  -2.2880172606181876e-02  -3.0450068098324921e-02  -3.9377378591668941e-02  -4.9814521930291275e-02  -6.1922824194397458e-02  -7.5879058061993243e-02  -9.1884565616826952e-02  -1.1017576484206049e-01  -1.3103718931166841e-01  -1.5481958599716777e-01  -1.8196632564457801e-01  -2.1306442459685487e-01  -2.4881454018351162e-01  -2.9056363444478950e-01  -3.4032921407470151e-01  0.0000000000000000e+00  -2.6446271285627014e-04  -3.6956709100573009e-04  1.3884472621805282e-04  8.2959139317503774e-04  1.2411965908149961e-03  1.5819013192401141e-03  1.9224957519762738e-03  1.8684894315348490e-03  1.3453166321888352e-03  1.6981204440975190e-04  -1.7084752260835149e-03  -4.2612989300110588e-03  -7.5288679280484392e-03  -1.1567076311085778e-02  -1.6462270066541343e-02  -2.2319487512242754e-02  -2.9257342742226362e-02  -3.7402710420519444e-02  -4.6889078011164764e-02  -5.7856789509498636e-02  -7.0455186662010255e-02  -8.4846770482794959e-02  -1.0121328756153594e-01  -1.1976367782583502e-01  -1.4074470934913030e-01  -1.6445609955563931e-01  -1.9127365202761587e-01  -2.2167949330822292e-01  -2.5640919160745868e-01  -2.9644157119330317e-01  -3.4322521101702197e-01  0.0000000000000000e+00  -1.4623906661290735e-04  -1.4468484375836132e-04  2.9303654635936453e-04  8.3487804184173174e-04  1.0305838591580605e-03  9.0763515706110875e-04  6.6043255151311921e-04  9.6467575231615524e-05  -9.3152880451001291e-04  -2.5245964173403728e-03  -4.7569089753870608e-03  -7.6779142289505904e-03  -1.1335753526248800e-02  -1.5796578180104971e-02  -2.1141487658203277e-02  -2.7466003400838636e-02  -3.4876311239608160e-02  -4.3486534183997158e-02  -5.3417013746551764e-02  -6.4794011816198260e-02  -7.7750696862808805e-02  -9.2429422365524150e-02  -1.0898526740754372e-01  -1.2759096765549685e-01  -1.4844382934247832e-01  -1.7177588708834399e-01  -1.9786899269957300e-01  -2.2707675985021114e-01  -2.6001048325998621e-01  -2.9716981391993436e-01  -3.3909797605048791e-01  0.0000000000000000e+00  1.2904154132710173e-04  2.9926604084392196e-04  4.0510533149291830e-04  4.7088133355816593e-04  3.7553472415052396e-04  4.5593638637678462e-05  -5.6765493346594084e-04  -1.5255894065847203e-03  -2.9313921299341686e-03  -4.8778231331610029e-03  -7.4414275843973764e-03  -1.0688983896161663e-02  -1.4685280925098446e-02  -1.9500918862859606e-02  -2.5215977430450912e-02  -3.1919587242312676e-02  -3.9708682496475155e-02  -4.8686197762962222e-02  -5.8959670442657541e-02  -7.0640438031205399e-02  -8.3843508873645903e-02  -9.8688068782296731e-02  -1.1529858214110918e-01  -1.3380646263686738e-01  -1.5435251731512606e-01  -1.7709073296954567e-01  -2.0219521925746359e-01  -2.2988489100923681e-01  -2.6036511567116860e-01  -2.9390126721655829e-01  -3.3076323148972470e-01  0.0000000000000000e+00  9.7907785590297644e-05  2.4216837218660886e-04  2.4575210355338067e-04  8.7939769071467290e-05  -2.4562488021564799e-04  -8.1767097457240015e-04  -1.6930514934019396e-03  -2.9419349536989915e-03  -4.6427923133007688e-03  -6.8770580935847269e-03  -9.7213268234302066e-03  -1.3247664028938261e-02  -1.7527300122560974e-02  -2.2634324059999232e-02  -2.8647893147274089e-02  -3.5652739359767954e-02  -4.3738487863937900e-02  -5.2998486579269477e-02  -6.3528441072874614e-02  -7.5425142007244567e-02  -8.8785310115049296e-02  -1.0370448460067686e-01  -1.2027582007314097e-01  -1.3858856278269183e-01  -1.5872592601919616e-01  -1.8076214634929100e-01  -2.0475876803819115e-01  -2.3075568182324674e-01  -2.5877047272463283e-01  -2.8878225206981983e-01  -3.2076085855932363e-01  0.0000000000000000e+00  5.8792773879604979e-05  1.0631894842173551e-04  -9.4141087229514470e-06  -3.0937513854167528e-04  -8.1333873088097731e-04  -1.5732210271556151e-03  -2.6520279627163515e-03  -4.1180508854845362e-03  -6.0436232280371158e-03  -8.5034144711169726e-03  -1.1571989516903202e-02  -1.5322795565265841e-02  -1.9829210253696779e-02  -2.5166381276758736e-02  -3.1412429863600683e-02  -3.8648615392610455e-02  -4.6958774021175487e-02  -5.6428249484470380e-02  -6.7142441565476524e-02  -7.9185054197459109e-02  -9.2636044016733116e-02  -1.0756911760085100e-01  -1.2404853387400394e-01  -1.4212480298080454e-01  -1.6182862701975512e-01  -1.8316209337351186e-01  -2.0608372159625413e-01  -2.3048312371542437e-01  -2.5620362784235295e-01  -2.8313427478307990e-01  -3.1079191484256008e-01  0.0000000000000000e+00  3.5757244408749041e-05  -1.7711842229016801e-05  -2.5805757086004940e-04  -6.5926178066880907e-04  -1.2813783060910463e-03  -2.1755565652779043e-03  -3.4014681668681035e-03  -5.0243580887068678e-03  -7.1131491552971614e-03  -9.7391200720901207e-03  -1.2974924815024378e-02  -1.6893840920717912e-02  -2.1569689125792560e-02  -2.7077501467901582e-02  -3.3494106257359602e-02  -4.0897983818828601e-02  -4.9368500795690128e-02  -5.8984721432984499e-02  -6.9823759263346649e-02  -8.1958611408462057e-02  -9.5455388776517519e-02  -1.1036973503248039e-01  -1.2674210695185159e-01  -1.4459140340831234e-01  -1.6390610889378679e-01  -1.8463170366360393e-01  -2.0665222298446739e-01  -2.2975488606308037e-01  -2.5353093954853134e-01  -2.7774835312289525e-01  -3.0147015653296078e-01  0.0000000000000000e+00  -3.2213481530314576e-05  -1.6348975820682188e-04  -4.4635435560522630e-04  -9.1528723324914546e-04  -1.6130143156907611e-03  -2.5933632666480886e-03  -3.9144294510174964e-03  -5.6392426188228107e-03  -7.8345901621996970e-03  -1.0569875344124959e-02  -1.3916434814875863e-02  -1.7946989108608310e-02  -2.2735179328273444e-02  -2.8355586238375259e-02  -3.4883895266469275e-02  -4.2396541716752369e-02  -5.0969766981017781e-02  -6.0678251361849900e-02  -7.1593268340411520e-02  -8.3780210534624616e-02  -9.7295335482545750e-02  -1.1218148403746243e-01  -1.2846240866377939e-01  -1.4613518035397779e-01  -1.6515987103150417e-01  -1.8544555629206971e-01  -2.0683129212619977e-01  -2.2906728349057615e-01  -2.5171114412739359e-01  -2.7430576868140644e-01  -2.9509657812874285e-01  0.0000000000000000e+00  -6.2273434682798590e-05  -2.3913920182469701e-04  -5.5041212925517461e-04  -1.0493298222825184e-03  -1.7839164056502516e-03  -2.8062619043485709e-03  -4.1738410336439984e-03  -5.9486751235968624e-03  -8.1965212294396010e-03  -1.0985900273760833e-02  -1.4387482200654507e-02  -1.8473588082166943e-02  -2.3317613968735038e-02  -2.8993779642443179e-02  -3.5577078412257199e-02  -4.3142809672718288e-02  -5.1765537969654218e-02  -6.1517618583329936e-02  -7.2467233366682260e-02  -8.4675760085833010e-02  -9.8194295241055038e-02  -1.1305907678702465e-01  -1.2928545592833940e-01  -1.4685993458960789e-01  -1.6572957300031468e-01  -1.8578817436915229e-01  -2.0685920992844067e-01  -2.2867212183850452e-01  -2.5094985870766534e-01  -2.7278023441374888e-01  -2.9391607484720239e-01  0.0000000000000000e+00  -6.2107944351611483e-05  -2.3867274849099729e-04  -5.4964325337086980e-04  -1.0481761622521243e-03  -1.7823077928237542e-03  -2.8041732179918686e-03  -4.1712777691624110e-03  -5.9456765520296256e-03  -8.1931527310590800e-03  -1.0982236071064598e-02  -1.4383583431034803e-02  -1.8469479917133394e-02  -2.3313264221606102e-02  -2.8989078557981329e-02  -3.5571818666382080e-02  -4.3136665069765850e-02  -5.1758039563830550e-02  -6.1508129070279645e-02  -7.2454924432200293e-02  -8.4659604698386376e-02  -9.8173100931386342e-02  -1.1303161353850701e-01  -1.2925078592945025e-01  -1.4681814210554994e-01  -1.6568322515927492e-01  -1.8574488271173106e-01  -2.0683589795072102e-01  -2.2870578562622368e-01  -2.5103084135383985e-01  -2.7317515458574437e-01  -2.9559293341493992e-01  0.0000000000000000e+00  -3.1739891146729450e-05  -1.6222372134354986e-04  -4.4421110669768982e-04  -9.1192795834842274e-04  -1.6082658727854212e-03  -2.5871271957060090e-03  -3.9067185259728972e-03  -5.6301869521320231e-03  -7.8244078957636388e-03  -1.0558815717789070e-02  -1.3904707303184549e-02  -1.7934692948544832e-02  -2.2722238703047189e-02  -2.8341691071300319e-02  -3.4868443995631063e-02  -4.2378579567022609e-02  -5.0947914542841644e-02  -6.0650624062818799e-02  -7.1557398141016998e-02  -8.3733000002985919e-02  -9.7233110456347069e-02  -1.1210028308823591e-01  -1.2835878931093003e-01  -1.4600808708484214e-01  -1.6501454452259054e-01  -1.8530093238140241e-01  -2.0673287675057861e-01  -2.2910881854276338e-01  -2.5212803146208812e-01  -2.7547258587444107e-01  -2.9830838226228562e-01  0.0000000000000000e+00  3.5977152818811538e-05  -1.6407457678042479e-05  -2.5494060391986826e-04  -6.5405579517978157e-04  -1.2737292970064716e-03  -2.1652477653092911e-03  -3.3885195507996142e-03  -5.0090340654511218e-03  -7.0958920543513970e-03  -9.7204364239510538e-03  -1.2955252707471082e-02  -1.6873423965484677e-02  -2.1548467113633396e-02  -2.7055017924550166e-02  -3.3469423963614527e-02  -4.0869590837908004e-02  -4.9334192931084479e-02  -5.8941457907854600e-02  -6.9767502740524900e-02  -8.1884185930094250e-02  -9.5356431401188241e-02  -1.1023890327833274e-01  -1.2657188170115360e-01  -1.4437619344307967e-01  -1.6364709513388914e-01  -1.8434742702063397e-01  -2.0639829414446689e-01  -2.2966010473654716e-01  -2.5391763232311765e-01  -2.7902500788460544e-01  -3.0434225399466475e-01  0.0000000000000000e+00  5.8262610785638231e-05  1.0676326540832059e-04  -6.0897153323884320e-06  -3.0296361508232406e-04  -8.0318235563643051e-04  -1.5589079182570741e-03  -2.6336050757389561e-03  -4.0960031864799695e-03  -6.0187539431869512e-03  -8.4766356865712579e-03  -1.1544108156152068e-02  -1.5294314546484378e-02  -1.9800171699448275e-02  -2.5136258563796376e-02  -3.1380039169263095e-02  -3.8612005604611296e-02  -4.6915068251627320e-02  -5.6373428160255722e-02  -6.7071071732687046e-02  -7.9089985426467030e-02  -9.2508120004733102e-02  -1.0739701322309468e-01  -1.2381896265979292e-01  -1.4182363659754166e-01  -1.6144421759001285e-01  -1.8269379635431349e-01  -2.0556626794634006e-01  -2.3002478860586353e-01  -2.5595700740337046e-01  -2.8306781930118663e-01  -3.1215171337292935e-01  0.0000000000000000e+00  9.7378797763916249e-05  2.4211575589139103e-04  2.4834077173117213e-04  9.4582207698256824e-05  -2.3352512767191820e-04  -7.9934684827651851e-04  -1.6686384419793909e-03  -2.9123172272686676e-03  -4.6093449610063808e-03  -6.8413368927869320e-03  -9.6847262359012008e-03  -1.3211096030966631e-02  -1.7491000049677952e-02  -2.2597771028561881e-02  -2.8609761674559857e-02  -3.5610800275591395e-02  -4.3689417529969410e-02  -5.2937574977839824e-02  -6.3449192706295593e-02  -7.5318767114194843e-02  -8.8640104893546318e-02  -1.0350510210740468e-01  -1.2000244480115035e-01  -1.3821606620189783e-01  -1.5822324373373250e-01  -1.8009318981120948e-01  -2.0388752381663197e-01  -2.2970993155967273e-01  -2.5765525999578676e-01  -2.8759080390975222e-01  -3.2026678421835797e-01  0.0000000000000000e+00  1.2849150807498755e-04  2.9799636602478711e-04  4.0511169947571053e-04  4.7593434746574559e-04  3.8876248835466754e-04  6.8125187634751882e-05  -5.3630073556751496e-04  -1.4869847295150512e-03  -2.8877491864103691e-03  -4.8317435600594167e-03  -7.3952293889370350e-03  -1.0644156677793304e-02  -1.4642299627397635e-02  -1.9459301522676820e-02  -2.5174359547320363e-02  -3.1875655037087822e-02  -3.9658966591541722e-02  -4.8625711644612588e-02  -5.8881384330607980e-02  -7.0534566029057055e-02  -8.3696561550536869e-02  -9.8481560831721535e-02  -1.1500715624476894e-01  -1.3339492085565488e-01  -1.5377075692179071e-01  -1.7626404239652738e-01  -2.0100554981632285e-01  -2.2810746710629279e-01  -2.5807823549148967e-01  -2.9110056364582571e-01  -3.2681628965252946e-01  0.0000000000000000e+00  -1.4741973508594397e-04  -1.5000459589209264e-04  2.8544307936040483e-04  8.3373395535542728e-04  1.0435552107580257e-03  9.3522766275860511e-04  6.9996809269635778e-04  1.4624331902446996e-04  -8.7497609519090471e-04  -2.4658447263104684e-03  -4.6997398409211640e-03  -7.6244909897026716e-03  -1.1286662110520778e-02  -1.5751327620290856e-02  -2.1098736927822014e-02  -2.7423567798738797e-02  -3.4830943965765845e-02  -4.3433510613112909e-02  -5.3349494725899664e-02  -6.4702163143044694e-02  -7.7620512380438531e-02  -9.2241089817707053e-02  -1.0871068829786143e-01  -1.2718960644038355e-01  -1.4785506324686062e-01  -1.7090382729456755e-01  -1.9654938897812374e-01  -2.2499454727856083e-01  -2.5659917044934999e-01  -2.9148179916059574e-01  -3.3030459538492218e-01  0.0000000000000000e+00  -2.6359326464577628e-04  -3.7243662036464509e-04  1.3217003012606498e-04  8.2977788309161694e-04  1.2568419908979755e-03  1.6135360852132688e-03  1.9707464112046192e-03  1.9334976125210349e-03  1.4195452903408541e-03  2.4495529817727653e-04  -1.6384876489785967e-03  -4.1989156438795930e-03  -7.4743169276335810e-03  -1.1519627344410376e-02  -1.6420641331396237e-02  -2.2281832974978752e-02  -2.9221057526366771e-02  -3.7363989760045867e-02  -4.6842170804664060e-02  -5.7792983701159012e-02  -7.0361539797569386e-02  -8.4704478948677470e-02  -1.0099533603542089e-01  -1.1943100657282335e-01  -1.4023945447380881e-01  -1.6368919140135987e-01  -1.9009986060884454e-01  -2.1987968290830112e-01  -2.5330692616133527e-01  -2.9133563913974836e-01  -3.3587760968480074e-01  0.0000000000000000e+00  -9.5935339896711914e-05  -1.0668631278542800e-04  1.9503734674390123e-04  6.6546537813752657e-04  1.2096992145965552e-03  1.9665757359556991e-03  2.8274055126764810e-03  3.8291028869170121e-03  4.1111205498034521e-03  3.2280869268241827e-03  1.7342098612311895e-03  -4.4712583975883575e-04  -3.2805204419578274e-03  -6.8325712109805559e-03  -1.1194614155454044e-02  -1.6491223637512945e-02  -2.2856781117786166e-02  -3.0431403431303461e-02  -3.9359834126460193e-02  -4.9791792876940431e-02  -6.1884614372471766e-02  -7.5809781708001178e-02  -9.1761843349283057e-02  -1.0996823885785763e-01  -1.3070121609934093e-01  -1.5429446762336343e-01  -1.8117224481296382e-01  -2.1187712550808002e-01  -2.4725701916773674e-01  -2.8888694214453176e-01  -3.3901624350605797e-01  0.0000000000000000e+00  -2.3563969484347272e-05  4.2493514295228022e-05  3.1101731933727875e-04  7.5429269619390813e-04  1.3822324124