<?xml version="1.0"?>
<VTKFile type="UnstructuredGrid"  version="0.1"  >
<UnstructuredGrid>
<Piece  NumberOfPoints="5634" NumberOfCells="11264">
<Points>
<DataArray  type="Float64"  NumberOfComponents="3"  format="ascii">0 0 0  0.5 0 0  0.5 0.5 0  0.5 0 0.5  0 0.5 0  0 0.5 0.5  0 0 0.5  1 0 0  1 0.5 0  1 0 0.5  1.5 0 0  1.5 0.5 0  1.5 0 0.5  2 0 0  2 0.5 0  2 0 0.5  2.5 0 0  2.5 0.5 0  2.5 0 0.5  3 0 0  3 0.5 0  3 0 0.5  3.5 0 0  3.5 0.5 0  3.5 0 0.5  4 0 0  4 0.5 0  4 0 0.5  4.5 0 0  4.5 0.5 0  4.5 0 0.5  5 0 0  5 0.5 0  5 0 0.5  5.5 0 0  5.5 0.5 0  5.5 0 0.5  6 0 0  6 0.5 0  6 0 0.5  6.5 0 0  6.5 0.5 0  6.5 0 0.5  7 0 0  7 0.5 0  7 0 0.5  7.5 0 0  7.5 0.5 0  7.5 0 0.5  8 0 0  8 0.5 0  8 0 0.5  8.5 0 0  8.5 0.5 0  8.5 0 0.5  9 0 0  9 0.5 0  9 0 0.5  9.5 0 0  9.5 0.5 0  9.5 0 0.5  10 0 0  10 0.5 0  10 0 0.5  10 0.5 0.5  0.5 1 0  0 1 0  0 1 0.5  1 1 0  1.5 1 0  2 1 0  2.5 1 0  3 1 0  3.5 1 0  4 1 0  4.5 1 0  5 1 0  5.5 1 0  6 1 0  6.5 1 0  7 1 0  7.5 1 0  8 1 0  8.5 1 0  9 1 0  9.5 1 0  10 1 0  10 1 0.5  0.5 1.5 0  0 1.5 0  0 1.5 0.5  1 1.5 0  1.5 1.5 0  2 1.5 0  2.5 1.5 0  3 1.5 0  3.5 1.5 0  4 1.5 0  4.5 1.5 0  5 1.5 0  5.5 1.5 0  6 1.5 0  6.5 1.5 0  7 1.5 0  7.5 1.5 0  8 1.5 0  8.5 1.5 0  9 1.5 0  9.5 1.5 0  10 1.5 0  10 1.5 0.5  0.5 2 0  0 2 0  0 2 0.5  1 2 0  1.5 2 0  2 2 0  2.5 2 0  3 2 0  3.5 2 0  4 2 0  4.5 2 0  5 2 0  5.5 2 0  6 2 0  6.5 2 0  7 2 0  7.5 2 0  8 2 0  8.5 2 0  9 2 0  9.5 2 0  10 2 0  10 2 0.5  0.5 2 0.5  1 2 0.5  1.5 2 0.5  2 2 0.5  2.5 2 0.5  3 2 0.5  3.5 2 0.5  4 2 0.5  4.5 2 0.5  5 2 0.5  5.5 2 0.5  6 2 0.5  6.5 2 0.5  7 2 0.5  7.5 2 0.5  8 2 0.5  8.5 2 0.5  9 2 0.5  9.5 2 0.5  0.5 0 1  0 0.5 1  0 0 1  1 0 1  1.5 0 1  2 0 1  2.5 0 1  3 0 1  3.5 0 1  4 0 1  4.5 0 1  5 0 1  5.5 0 1  6 0 1  6.5 0 1  7 0 1  7.5 0 1  8 0 1  8.5 0 1  9 0 1  9.5 0 1  10 0 1  10 0.5 1  0 1 1  10 1 1  0 1.5 1  10 1.5 1  0 2 1  10 2 1  0.5 2 1  1 2 1  1.5 2 1  2 2 1  2.5 2 1  3 2 1  3.5 2 1  4 2 1  4.5 2 1  5 2 1  5.5 2 1  6 2 1  6.5 2 1  7 2 1  7.5 2 1  8 2 1  8.5 2 1  9 2 1  9.5 2 1  0.5 0 1.5  0 0.5 1.5  0 0 1.5  1 0 1.5  1.5 0 1.5  2 0 1.5  2.5 0 1.5  3 0 1.5  3.5 0 1.5  4 0 1.5  4.5 0 1.5  5 0 1.5  5.5 0 1.5  6 0 1.5  6.5 0 1.5  7 0 1.5  7.5 0 1.5  8 0 1.5  8.5 0 1.5  9 0 1.5  9.5 0 1.5  10 0 1.5  10 0.5 1.5  0 1 1.5  10 1 1.5  0 1.5 1.5  10 1.5 1.5  0 2 1.5  10 2 1.5  0.5 2 1.5  1 2 1.5  1.5 2 1.5  2 2 1.5  2.5 2 1.5  3 2 1.5  3.5 2 1.5  4 2 1.5  4.5 2 1.5  5 2 1.5  5.5 2 1.5  6 2 1.5  6.5 2 1.5  7 2 1.5  7.5 2 1.5  8 2 1.5  8.5 2 1.5  9 2 1.5  9.5 2 1.5  0.5 0 2  0 0.5 2  0 0 2  1 0 2  1.5 0 2  2 0 2  2.5 0 2  3 0 2  3.5 0 2  4 0 2  4.5 0 2  5 0 2  5.5 0 2  6 0 2  6.5 0 2  7 0 2  7.5 0 2  8 0 2  8.5 0 2  9 0 2  9.5 0 2  10 0 2  10 0.5 2  0 1 2  10 1 2  0 1.5 2  10 1.5 2  0 2 2  10 2 2  0.5 2 2  1 2 2  1.5 2 2  2 2 2  2.5 2 2  3 2 2  3.5 2 2  4 2 2  4.5 2 2  5 2 2  5.5 2 2  6 2 2  6.5 2 2  7 2 2  7.5 2 2  8 2 2  8.5 2 2  9 2 2  9.5 2 2  0.5 0.5 2  1 0.5 2  1.5 0.5 2  2 0.5 2  2.5 0.5 2  3 0.5 2  3.5 0.5 2  4 0.5 2  4.5 0.5 2  5 0.5 2  5.5 0.5 2  6 0.5 2  6.5 0.5 2  7 0.5 2  7.5 0.5 2  8 0.5 2  8.5 0.5 2  9 0.5 2  9.5 0.5 2  0.5 1 2  1 1 2  1.5 1 2  2 1 2  2.5 1 2  3 1 2  3.5 1 2  4 1 2  4.5 1 2  5 1 2  5.5 1 2  6 1 2  6.5 1 2  7 1 2  7.5 1 2  8 1 2  8.5 1 2  9 1 2  9.5 1 2  0.5 1.5 2  1 1.5 2  1.5 1.5 2  2 1.5 2  2.5 1.5 2  3 1.5 2  3.5 1.5 2  4 1.5 2  4.5 1.5 2  5 1.5 2  5.5 1.5 2  6 1.5 2  6.5 1.5 2  7 1.5 2  7.5 1.5 2  8 1.5 2  8.5 1.5 2  9 1.5 2  9.5 1.5 2  0.25 0 0  0.25 0.25 0  0.25 0 0.25  0 0.25 0  0 0.25 0.25  0 0 0.25  0.5 0.25 0  0.5 0 0.25  0.75 0 0  0.75 0.25 0  0.75 0 0.25  0.25 0.5 0  0.75 0.5 0  0.5 0.75 0  0.75 0.75 0  0.25 0 0.5  0.75 0 0.5  0.5 0 0.75  0.75 0 0.75  0 0.5 0.25  0.25 0.75 0  0 0.75 0  0 0.75 0.25  0 0.25 0.5  0 0.75 0.5  0 0.5 0.75  0 0.75 0.75  0.25 0 0.75  0 0.25 0.75  0 0 0.75  1 0.25 0  1 0 0.25  1.25 0 0  1.25 0.25 0  1.25 0 0.25  1.25 0.5 0  1 0.75 0  1.25 0.75 0  1.25 0 0.5  1 0 0.75  1.25 0 0.75  1.5 0.25 0  1.5 0 0.25  1.75 0 0  1.75 0.25 0  1.75 0 0.25  1.75 0.5 0  1.5 0.75 0  1.75 0.75 0  1.75 0 0.5  1.5 0 0.75  1.75 0 0.75  2 0.25 0  2 0 0.25  2.25 0 0  2.25 0.25 0  2.25 0 0.25  2.25 0.5 0  2 0.75 0  2.25 0.75 0  2.25 0 0.5  2 0 0.75  2.25 0 0.75  2.5 0.25 0  2.5 0 0.25  2.75 0 0  2.75 0.25 0  2.75 0 0.25  2.75 0.5 0  2.5 0.75 0  2.75 0.75 0  2.75 0 0.5  2.5 0 0.75  2.75 0 0.75  3 0.25 0  3 0 0.25  3.25 0 0  3.25 0.25 0  3.25 0 0.25  3.25 0.5 0  3 0.75 0  3.25 0.75 0  3.25 0 0.5  3 0 0.75  3.25 0 0.75  3.5 0.25 0  3.5 0 0.25  3.75 0 0  3.75 0.25 0  3.75 0 0.25  3.75 0.5 0  3.5 0.75 0  3.75 0.75 0  3.75 0 0.5  3.5 0 0.75  3.75 0 0.75  4 0.25 0  4 0 0.25  4.25 0 0  4.25 0.25 0  4.25 0 0.25  4.25 0.5 0  4 0.75 0  4.25 0.75 0  4.25 0 0.5  4 0 0.75  4.25 0 0.75  4.5 0.25 0  4.5 0 0.25  4.75 0 0  4.75 0.25 0  4.75 0 0.25  4.75 0.5 0  4.5 0.75 0  4.75 0.75 0  4.75 0 0.5  4.5 0 0.75  4.75 0 0.75  5 0.25 0  5 0 0.25  5.25 0 0  5.25 0.25 0  5.25 0 0.25  5.25 0.5 0  5 0.75 0  5.25 0.75 0  5.25 0 0.5  5 0 0.75  5.25 0 0.75  5.5 0.25 0  5.5 0 0.25  5.75 0 0  5.75 0.25 0  5.75 0 0.25  5.75 0.5 0  5.5 0.75 0  5.75 0.75 0  5.75 0 0.5  5.5 0 0.75  5.75 0 0.75  6 0.25 0  6 0 0.25  6.25 0 0  6.25 0.25 0  6.25 0 0.25  6.25 0.5 0  6 0.75 0  6.25 0.75 0  6.25 0 0.5  6 0 0.75  6.25 0 0.75  6.5 0.25 0  6.5 0 0.25  6.75 0 0  6.75 0.25 0  6.75 0 0.25  6.75 0.5 0  6.5 0.75 0  6.75 0.75 0  6.75 0 0.5  6.5 0 0.75  6.75 0 0.75  7 0.25 0  7 0 0.25  7.25 0 0  7.25 0.25 0  7.25 0 0.25  7.25 0.5 0  7 0.75 0  7.25 0.75 0  7.25 0 0.5  7 0 0.75  7.25 0 0.75  7.5 0.25 0  7.5 0 0.25  7.75 0 0  7.75 0.25 0  7.75 0 0.25  7.75 0.5 0  7.5 0.75 0  7.75 0.75 0  7.75 0 0.5  7.5 0 0.75  7.75 0 0.75  8 0.25 0  8 0 0.25  8.25 0 0  8.25 0.25 0  8.25 0 0.25  8.25 0.5 0  8 0.75 0  8.25 0.75 0  8.25 0 0.5  8 0 0.75  8.25 0 0.75  8.5 0.25 0  8.5 0 0.25  8.75 0 0  8.75 0.25 0  8.75 0 0.25  8.75 0.5 0  8.5 0.75 0  8.75 0.75 0  8.75 0 0.5  8.5 0 0.75  8.75 0 0.75  9 0.25 0  9 0 0.25  9.25 0 0  9.25 0.25 0  9.25 0 0.25  9.25 0.5 0  9 0.75 0  9.25 0.75 0  9.25 0 0.5  9 0 0.75  9.25 0 0.75  9.5 0.25 0  9.5 0 0.25  9.75 0 0  9.75 0.25 0  9.75 0 0.25  9.75 0.5 0  9.5 0.75 0  9.75 0.75 0  9.75 0 0.5  9.5 0 0.75  9.75 0 0.75  10 0.25 0  10 0 0.25  10 0.25 0.25  10 0.5 0.25  10 0.75 0  10 0.75 0.25  10 0.25 0.5  10 0 0.75  10 0.25 0.75  10 0.75 0.5  10 0.5 0.75  10 0.75 0.75  0.25 1 0  0.75 1 0  0.5 1.25 0  0.75 1.25 0  0 1 0.25  0.25 1.25 0  0 1.25 0  0 1.25 0.25  0 1.25 0.5  0 1 0.75  0 1.25 0.75  1.25 1 0  1 1.25 0  1.25 1.25 0  1.75 1 0  1.5 1.25 0  1.75 1.25 0  2.25 1 0  2 1.25 0  2.25 1.25 0  2.75 1 0  2.5 1.25 0  2.75 1.25 0  3.25 1 0  3 1.25 0  3.25 1.25 0  3.75 1 0  3.5 1.25 0  3.75 1.25 0  4.25 1 0  4 1.25 0  4.25 1.25 0  4.75 1 0  4.5 1.25 0  4.75 1.25 0  5.25 1 0  5 1.25 0  5.25 1.25 0  5.75 1 0  5.5 1.25 0  5.75 1.25 0  6.25 1 0  6 1.25 0  6.25 1.25 0  6.75 1 0  6.5 1.25 0  6.75 1.25 0  7.25 1 0  7 1.25 0  7.25 1.25 0  7.75 1 0  7.5 1.25 0  7.75 1.25 0  8.25 1 0  8 1.25 0  8.25 1.25 0  8.75 1 0  8.5 1.25 0  8.75 1.25 0  9.25 1 0  9 1.25 0  9.25 1.25 0  9.75 1 0  9.5 1.25 0  9.75 1.25 0  10 1 0.25  10 1.25 0  10 1.25 0.25  10 1.25 0.5  10 1 0.75  10 1.25 0.75  0.25 1.5 0  0.75 1.5 0  0.5 1.75 0  0.75 1.75 0  0 1.5 0.25  0.25 1.75 0  0 1.75 0  0 1.75 0.25  0 1.75 0.5  0 1.5 0.75  0 1.75 0.75  1.25 1.5 0  1 1.75 0  1.25 1.75 0  1.75 1.5 0  1.5 1.75 0  1.75 1.75 0  2.25 1.5 0  2 1.75 0  2.25 1.75 0  2.75 1.5 0  2.5 1.75 0  2.75 1.75 0  3.25 1.5 0  3 1.75 0  3.25 1.75 0  3.75 1.5 0  3.5 1.75 0  3.75 1.75 0  4.25 1.5 0  4 1.75 0  4.25 1.75 0  4.75 1.5 0  4.5 1.75 0  4.75 1.75 0  5.25 1.5 0  5 1.75 0  5.25 1.75 0  5.75 1.5 0  5.5 1.75 0  5.75 1.75 0  6.25 1.5 0  6 1.75 0  6.25 1.75 0  6.75 1.5 0  6.5 1.75 0  6.75 1.75 0  7.25 1.5 0  7 1.75 0  7.25 1.75 0  7.75 1.5 0  7.5 1.75 0  7.75 1.75 0  8.25 1.5 0  8 1.75 0  8.25 1.75 0  8.75 1.5 0  8.5 1.75 0  8.75 1.75 0  9.25 1.5 0  9 1.75 0  9.25 1.75 0  9.75 1.5 0  9.5 1.75 0  9.75 1.75 0  10 1.5 0.25  10 1.75 0  10 1.75 0.25  10 1.75 0.5  10 1.5 0.75  10 1.75 0.75  0.25 2 0  0.75 2 0  0.5 2 0.25  0.75 2 0.25  0 2 0.25  0.25 2 0.25  0.25 2 0.5  0 2 0.75  0.25 2 0.75  1.25 2 0  1 2 0.25  1.25 2 0.25  1.75 2 0  1.5 2 0.25  1.75 2 0.25  2.25 2 0  2 2 0.25  2.25 2 0.25  2.75 2 0  2.5 2 0.25  2.75 2 0.25  3.25 2 0  3 2 0.25  3.25 2 0.25  3.75 2 0  3.5 2 0.25  3.75 2 0.25  4.25 2 0  4 2 0.25  4.25 2 0.25  4.75 2 0  4.5 2 0.25  4.75 2 0.25  5.25 2 0  5 2 0.25  5.25 2 0.25  5.75 2 0  5.5 2 0.25  5.75 2 0.25  6.25 2 0  6 2 0.25  6.25 2 0.25  6.75 2 0  6.5 2 0.25  6.75 2 0.25  7.25 2 0  7 2 0.25  7.25 2 0.25  7.75 2 0  7.5 2 0.25  7.75 2 0.25  8.25 2 0  8 2 0.25  8.25 2 0.25  8.75 2 0  8.5 2 0.25  8.75 2 0.25  9.25 2 0  9 2 0.25  9.25 2 0.25  9.75 2 0  9.75 2 0.25  9.5 2 0.25  10 2 0.25  9.75 2 0.5  10 2 0.75  0.75 2 0.5  0.5 2 0.75  0.75 2 0.75  1.25 2 0.5  1 2 0.75  1.25 2 0.75  1.75 2 0.5  1.5 2 0.75  1.75 2 0.75  2.25 2 0.5  2 2 0.75  2.25 2 0.75  2.75 2 0.5  2.5 2 0.75  2.75 2 0.75  3.25 2 0.5  3 2 0.75  3.25 2 0.75  3.75 2 0.5  3.5 2 0.75  3.75 2 0.75  4.25 2 0.5  4 2 0.75  4.25 2 0.75  4.75 2 0.5  4.5 2 0.75  4.75 2 0.75  5.25 2 0.5  5 2 0.75  5.25 2 0.75  5.75 2 0.5  5.5 2 0.75  5.75 2 0.75  6.25 2 0.5  6 2 0.75  6.25 2 0.75  6.75 2 0.5  6.5 2 0.75  6.75 2 0.75  7.25 2 0.5  7 2 0.75  7.25 2 0.75  7.75 2 0.5  7.5 2 0.75  7.75 2 0.75  8.25 2 0.5  8 2 0.75  8.25 2 0.75  8.75 2 0.5  8.5 2 0.75  8.75 2 0.75  9.25 2 0.5  9 2 0.75  9.25 2 0.75  9.75 2 0.75  9.5 2 0.75  0.25 0 1  0.75 0 1  0.5 0 1.25  0.75 0 1.25  0 0.25 1  0 0.75 1  0 0.5 1.25  0 0.75 1.25  0.25 0 1.25  0 0.25 1.25  0 0 1.25  1.25 0 1  1 0 1.25  1.25 0 1.25  1.75 0 1  1.5 0 1.25  1.75 0 1.25  2.25 0 1  2 0 1.25  2.25 0 1.25  2.75 0 1  2.5 0 1.25  2.75 0 1.25  3.25 0 1  3 0 1.25  3.25 0 1.25  3.75 0 1  3.5 0 1.25  3.75 0 1.25  4.25 0 1  4 0 1.25  4.25 0 1.25  4.75 0 1  4.5 0 1.25  4.75 0 1.25  5.25 0 1  5 0 1.25  5.25 0 1.25  5.75 0 1  5.5 0 1.25  5.75 0 1.25  6.25 0 1  6 0 1.25  6.25 0 1.25  6.75 0 1  6.5 0 1.25  6.75 0 1.25  7.25 0 1  7 0 1.25  7.25 0 1.25  7.75 0 1  7.5 0 1.25  7.75 0 1.25  8.25 0 1  8 0 1.25  8.25
[...]
<PointData  Vectors="t"> 
<DataArray  type="Float64"  Name="t"  NumberOfComponents="3" format="ascii">0.0000000000000000e+00 0.0000000000000000e+00 0.0000000000000000e+00  -1.7203536930756421e-07 1.0250397880088873e-06 -1.0314788667261744e-07  -1.1026045512892956e-07 1.4611991695596196e-06 -3.1302799560323291e-08  -1.1161867781114500e-07 6.9743836273068505e-07 -1.9812225817473666e-08  0.0000000000000000e+00 0.0000000000000000e+00 0.0000000000000000e+00  0.0000000000000000e+00 0.0000000000000000e+00 0.0000000000000000e+00  0.0000000000000000e+00 0.0000000000000000e+00 0.0000000000000000e+00  -5.0632059225450743e-07 1.3068388769983314e-06 -5.7448040208919344e-09  -5.0249719683046567e-07 1.6783784572922912e-06 -9.1078727861083573e-09  -1.0900255073747099e-07 1.1489915873788963e-06 6.3994926647721576e-08  -7.2747434500009818e-07 1.5819407290857044e-06 2.3575680557966400e-08  -8.0165224656972672e-07 1.7913060909793850e-06 6.7876276103336131e-09  -7.8144099613794633e-08 1.4884220466492143e-06 6.7522437392369124e-08  -8.4567776514738324e-07 1.8313209612356755e-06 3.0772331010073791e-08  -9.6562002337345981e-07 1.9347224451060747e-06 1.3090303791898695e-08  -5.1400219226584891e-08 1.7660787559987842e-06 5.0740522684840932e-08  -9.0081953225218229e-07 2.0526644587238535e-06 3.0656969632601204e-08  -1.0452308755207089e-06 2.0993296965592134e-06 1.4503556961023368e-08  -2.9975926638253831e-08 2.0009501166665284e-06 3.5483035469005328e-08  -9.2223946366017614e-07 2.2462374632016856e-06 2.8546068998776602e-08  -1.0807431164849088e-06 2.2647112262765732e-06 1.4051977407394288e-08  -1.2232260424052464e-08 2.2017032010125557e-06 2.5291882019304130e-08  -9.2683768071629548e-07 2.4129756777054317e-06 2.6157431177272411e-08  -1.0946978559072862e-06 2.4179716705192269e-06 1.3057521855340345e-08  3.0573603911515621e-09 2.3729278721258433e-06 1.9082294153459539e-08  -9.2347516988686695e-07 2.5541839555946658e-06 2.3914428189000019e-08  -1.0984509851319831e-06 2.5529155738205367e-06 1.1982254866830166e-08  1.6607133148459568e-08 2.5175238754676858e-06 1.5305717392247426e-08  -9.1656135224936462e-07 2.6714104949283499e-06 2.1843016375209051e-08  -1.0974527251773024e-06 2.6672825806093426e-06 1.0945115478310332e-08  2.8801118810815968e-08 2.6377092492066571e-06 1.2841232377046102e-08  -9.0815787235500264e-07 2.7663486564653125e-06 1.9881748063621285e-08  -1.0941817303280856e-06 2.7608245144150420e-06 9.9525410793258539e-09  3.9831686020207468e-08 2.7354393441081480e-06 1.0991487746328980e-08  -8.9904072652771330e-07 2.8407655051672980e-06 1.7968819772868614e-08  -1.0895560412635585e-06 2.8341940568780944e-06 8.9830060006220915e-09  4.9780104239522316e-08 2.8125686223774526e-06 9.3076516666884734e-09  -8.8911607130838590e-07 2.8964526110710803e-06 1.6054201383198930e-08  -1.0834692157290585e-06 2.8882719598168832e-06 8.0099981060158129e-09  5.8653917546660923e-08 2.8709029269852176e-06 7.4140919165079614e-09  -8.7737525485315168e-07 2.9351869867172932e-06 1.4088244422387582e-08  -1.0747373696573170e-06 2.9236164972978954e-06 6.9999292281484339e-09  6.6387973059757109e-08 2.9122059466541314e-06 4.8363357329803666e-09  -8.6137502604771470e-07 2.9586876994425918e-06 1.1994478687288393e-08  -1.0604373994177296e-06 2.9397594037547305e-06 5.8933116065940525e-09  7.2798294378548840e-08 2.9381880111003085e-06 7.9048243825717280e-10  -8.3604092057330749e-07 2.9685522230871938e-06 9.6037662346459399e-09  -1.0343252229135693e-06 2.9340561408992031e-06 4.5591071779703315e-09  7.7443605835079577e-08 2.9504971710042716e-06 -6.1048122376748505e-09  -7.9145686303142998e-07 2.9661593687210602e-06 6.4832967197139047e-09  -9.8376564735956296e-07 2.8998912225057067e-06 2.6994919901793573e-09  7.9286589217007292e-08 2.9507488744245139e-06 -1.8147786759318374e-08  -7.0958287540237356e-07 2.9525688393158476e-06 1.5237718380732638e-09  -8.8491973304097733e-07 2.8250943552423143e-06 -2.9783002681056545e-10  7.5989726494033826e-08 2.9406853121551863e-06 -3.8534721026666941e-08  -5.6218251540312457e-07 2.9287261746770109e-06 -7.9288293817002879e-09  -6.9945075360067597e-07 2.6970930521930830e-06 -5.3694571525945472e-09  6.2892018140487406e-08 2.9226656107326902e-06 -6.9696151523995634e-08  -3.2394652815516266e-07 2.8975651140040262e-06 -2.7421382471667812e-08  -3.9238977040917609e-07 2.5455424341507151e-06 -1.2576585939150320e-08  3.2773349514245475e-08 2.9007362360658752e-06 -1.0389733469553515e-07  -9.2037888976092681e-08 2.8665497378030375e-06 -4.6278720140514107e-08  -6.8045766280670082e-08 2.6464528379619883e-06 -1.6011727381476121e-08  -9.9641150277490981e-09 2.8827862057377335e-06 -3.4025302049362743e-08  -2.2041590692172254e-08 2.8920642632559792e-06 4.4390122885755781e-08  1.5951230877598708e-19 1.6330158457456607e-06 -6.1422780485668694e-20  0.0000000000000000e+00 0.0000000000000000e+00 0.0000000000000000e+00  0.0000000000000000e+00 0.0000000000000000e+00 0.0000000000000000e+00  4.5070452246858548e-19 1.8771388825246692e-06 -1.3237874741899227e-19  8.0333688747653606e-19 1.9137455937273261e-06 -2.0585555288360922e-19  1.1999603954733726e-18 1.9975425334881425e-06 -2.7290217617247933e-19  1.5315315302916848e-18 2.1287291314281586e-06 -3.2838087612922417e-19  1.9510560519430346e-18 2.2772972118507158e-06 -3.6964119367119907e-19  2.3604655599330665e-18 2.4224868273156746e-06 -3.9551427521061678e-19  2.7096902199323440e-18 2.5536464054822774e-06 -4.0611652000389158e-19  2.8342799547426760e-18 2.6662393944549460e-06 -4.0032656018236160e-19  2.9656246355722148e-18 2.7588656296324686e-06 -3.7728579052335231e-19  3.1442073156474643e-18 2.8315240764571551e-06 -3.3709509296324612e-19  3.3954114420063165e-18 2.8845647209811037e-06 -2.8323253535647830e-19  3.5186548706439562e-18 2.9178321045872215e-06 -2.1841471601233263e-19  3.2247281241567422e-18 2.9295657040562650e-06 -1.4235608556868818e-19  3.1177079502169438e-18 2.9146051598146053e-06 -5.6680445893574207e-20  3.2980241802334110e-18 2.8616377157491197e-06 2.9273858410246248e-20  2.8145814542523058e-18 2.7510259603272725e-06 1.0164592611349941e-19  1.8268556644059998e-18 2.5637582430457374e-06 1.5299130390166901e-19  2.0541200054325834e-18 2.3479766831978796e-06 1.7431772298405965e-19  1.4531744373155411e-18 2.5208664165777908e-06 1.4341604483241952e-19  1.4100669024527583e-18 2.9009522565564539e-06 -1.6862091009152693e-19  1.1026045512931586e-07 1.4611991695591293e-06 3.1302799560212674e-08  0.0000000000000000e+00 0.0000000000000000e+00 0.0000000000000000e+00  0.0000000000000000e+00 0.0000000000000000e+00 0.0000000000000000e+00  5.0249719683131990e-07 1.6783784572916735e-06 9.1078727858460302e-09  8.0165224657105254e-07 1.7913060909787730e-06 -6.7876276107523451e-09  9.6562002337530571e-07 1.9347224451053767e-06 -1.3090303792456294e-08  1.0452308755231166e-06 2.0993296965584078e-06 -1.4503556961694601e-08  1.0807431164878291e-06 2.2647112262759777e-06 -1.4051977408149029e-08  1.0946978559107260e-06 2.4179716705184180e-06 -1.3057521856147074e-08  1.0984509851358907e-06 2.5529155738201437e-06 -1.1982254867658945e-08  1.0974527251819423e-06 2.6672825806090224e-06 -1.0945115479128033e-08  1.0941817303330593e-06 2.7608245144147773e-06 -9.9525410800981411e-09  1.0895560412686640e-06 2.8341940568778789e-06 -8.9830060013098012e-09  1.0834692157345314e-06 2.8882719598163585e-06 -8.0099981065921874e-09  1.0747373696633020e-06 2.9236164972976930e-06 -6.9999292285968137e-09  1.0604373994237232e-06 2.9397594037555136e-06 -5.8933116068888506e-09  1.0343252229194456e-06 2.9340561408988956e-06 -4.5591071780846611e-09  9.8376564736513008e-07 2.8998912225057957e-06 -2.6994919901057763e-09  8.8491973304725808e-07 2.8250943552427243e-06 2.9783002703468192e-10  6.9945075360567261e-07 2.6970930521942960e-06 5.3694571529274982e-09  3.9238977041280658e-07 2.5455424341513347e-06 1.2576585939550003e-08  6.8045766283334755e-08 2.6464528379629849e-06 1.6011727381847188e-08  2.2041590694918064e-08 2.8920642632565005e-06 -4.4390122886002354e-08  1.7203536930791236e-07 1.0250397880081034e-06 1.0314788667256742e-07  0.0000000000000000e+00 0.0000000000000000e+00 0.0000000000000000e+00  0.0000000000000000e+00 0.0000000000000000e+00 0.0000000000000000e+00  5.0632059225501703e-07 1.3068388769974403e-06 5.7448040206360684e-09  7.2747434500079836e-07 1.5819407290847233e-06 -2.3575680558411023e-08  8.4567776514828670e-07 1.8313209612346218e-06 -3.0772331010667502e-08  9.0081953225331011e-07 2.0526644587227019e-06 -3.0656969633319124e-08  9.2223946366146692e-07 2.2462374632006327e-06 -2.8546068999578567e-08  9.2683768071783571e-07 2.4129756777043776e-06 -2.6157431178126508e-08  9.2347516988867759e-07 2.5541839555937425e-06 -2.3914428189877853e-08  9.1656135225149216e-07 2.6714104949274411e-06 -2.1843016376076273e-08  9.0815787235761425e-07 2.7663486564645391e-06 -1.9881748064452654e-08  8.9904072653079714e-07 2.8407655051666725e-06 -1.7968819773594667e-08  8.8911607131140271e-07 2.8964526110706632e-06 -1.6054201383796896e-08  8.7737525485593820e-07 2.9351869867169078e-06 -1.4088244422875536e-08  8.6137502605095386e-07 2.9586876994427294e-06 -1.1994478687617637e-08  8.3604092057698224e-07 2.9685522230874289e-06 -9.6037662347781019e-09  7.9145686303447199e-07 2.9661593687218089e-06 -6.4832967195901891e-09  7.0958287540452004e-07 2.9525688393167980e-06 -1.5237718377923663e-09  5.6218251540595027e-07 2.9287261746781768e-06 7.9288293820911886e-09  3.2394652815822463e-07 2.8975651140056348e-06 2.7421382472199296e-08  9.2037888978913632e-08 2.8665497378046782e-06 4.6278720141161452e-08  9.9641150304078055e-09 2.8827862057389033e-06 3.4025302049329358e-08  1.1161867781116381e-07 6.9743836273020203e-07 1.9812225817294049e-08  1.0900255073749987e-07 1.1489915873781564e-06 -6.3994926648033668e-08  7.8144099613746657e-08 1.4884220466483234e-06 -6.7522437392820659e-08  5.1400219226384892e-08 1.7660787559978059e-06 -5.0740522685409880e-08  2.9975926637859312e-08 2.0009501166655005e-06 -3.5483035469677012e-08  1.2232260423455836e-08 2.2017032010115358e-06 -2.5291882020078510e-08  -3.0573603919366819e-09 2.3729278721248489e-06 -1.9082294154314732e-08  -1.6607133149400367e-08 2.5175238754667468e-06 -1.5305717393160792e-08  -2.8801118811872135e-08 2.6377092492058059e-06 -1.2841232378005521e-08  -3.9831686021366368e-08 2.7354393441074390e-06 -1.0991487747270797e-08  -4.9780104240737338e-08 2.8125686223768897e-06 -9.3076516674832864e-09  -5.8653917547785406e-08 2.8709029269848242e-06 -7.4140919171734381e-09  -6.6387973060655559e-08 2.9122059466539463e-06 -4.8363357336502935e-09  -7.2798294379189978e-08 2.9381880111003860e-06 -7.9048243885704159e-10  -7.7443605835455779e-08 2.9504971710045879e-06 6.1048122374159761e-09  -7.9286589216978334e-08 2.9507488744251250e-06 1.8147786759418420e-08  -7.5989726493500949e-08 2.9406853121561015e-06 3.8534721026736503e-08  -6.2892018139452994e-08 2.9226656107338744e-06 6.9696151523918686e-08  -3.2773349512457521e-08 2.9007362360672029e-06 1.0389733469560330e-07  -2.0386857126548688e-08 6.1581323281011844e-07 -1.1428005450992222e-19  0.0000000000000000e+00 0.0000000000000000e+00 0.0000000000000000e+00  0.0000000000000000e+00 0.0000000000000000e+00 0.0000000000000000e+00  2.4581946309968191e-08 1.0919710477643462e-06 -1.5185228447920164e-19  1.1282523589399440e-07 1.4534820185953591e-06 -1.5619349401257551e-19  1.8976389492527732e-07 1.7424952158537026e-06 -1.6080746468282770e-19  2.4435434069440852e-07 1.9828916492686727e-06 -1.9622730226267616e-19  2.8135280707927919e-07 2.1865049459091346e-06 -2.3918282564770118e-19  3.0713393938038086e-07 2.3594318316057410e-06 -2.3591112362168685e-19  3.2623152424723187e-07 2.5052452056914619e-06 -1.8225318533773656e-19  3.4129637990370280e-07 2.6264521965564867e-06 -1.2194497735253906e-19  3.5369146707654358e-07 2.7251254080810727e-06 -1.0882839353232051e-19  3.6396619351192718e-07 2.8031617013302501e-06 -1.3543329457360942e-19  3.7208301333406609e-07 2.8623778563080875e-06 -2.5313412722750941e-19  3.7739844516532125e-07 2.9045375944973198e-06 -4.8112527437082218e-19  3.7837905372271221e-07 2.9313554067699578e-06 -7.3342755852667759e-19  3.7198855961081690e-07 2.9445106082920564e-06 -9.1482448896093637e-19  3.5271398000147111e-07 2.9457207214864787e-06 -9.4508139883717187e-19  3.1151299341307729e-07 2.9369602553570565e-06 -6.6979217473194647e-19  2.3600650659541240e-07 2.9209161521521627e-06 -1.9782191750553568e-19  1.1732510138588556e-07 2.9014958809414102e-06 -1.5269112304031622e-21  6.8540314372417439e-09 2.8827764863969584e-06 -2.2491785349116179e-19  -8.7296565326544311e-09 2.9196457670573734e-06 -4.9391215838468208e-19  0.0000000000000000e+00 0.0000000000000000e+00 0.0000000000000000e+00  1.3666762069817877e-18 2.9523711419302867e-06 -4.2673523650093813e-19  0.0000000000000000e+00 0.0000000000000000e+00 0.0000000000000000e+00  8.7296565353522460e-09 2.9196457670579418e-06 -3.1064467768327204e-19  0.0000000000000000e+00 0.0000000000000000e+00 0.0000000000000000e+00  -6.8540314347038123e-09 2.8827764863981078e-06 -6.9127520668394167e-19  2.0386857126508109e-08 6.1581323280971504e-07 -4.0792509891163320e-20  -2.4581946310099299e-08 1.0919710477636633e-06 -6.5939637645077979e-20  -1.1282523589430339e-07 1.4534820185945044e-06 -1.0819027910278547e-19  -1.8976389492584649e-07 1.7424952158527480e-06 -1.5601376055224124e-19  -2.4435434069528811e-07 1.9828916492676681e-06 -1.9109811671192201e-19  -2.8135280708049527e-07 2.1865049459081246e-06 -2.4241413003682550e-19  -3.0713393938193718e-07 2.3594318316047554e-06 -3.4415729047137181e-19  -3.2623152424910911e-07 2.5052452056905327e-06 -4.9035502740159018e-19  -3.4129637990587777e-07 2.6264521965556472e-06 -6.1831135609924260e-19  -3.5369146707898181e-07 2.7251254080803587e-06 -6.5896020604174648e-19  -3.6396619351451291e-07 2.8031617013296927e-06 -6.2508922995947279e-19  -3.7208301333661905e-07 2.8623778563077068e-06 -5.7390202812110591e-19  -3.7739844516765064e-07 2.9045375944971504e-06 -4.6972445542276329e-19  -3.7837905372469930e-07 2.9313554067700370e-06 -1.9445151605765131e-19  -3.7198855961236204e-07 2.9445106082924147e-06 2.1895254703909177e-19  -3.5271398000241555e-07 2.9457207214871402e-06 4.4418219062621248e-19  -3.1151299341331266e-07 2.9369602553580014e-06 9.5697801013341273e-20  -2.3600650659488218e-07 2.9209161521533197e-06 -6.1786335947292097e-19  -1.1732510138437100e-07 2.9014958809426379e-06 -1.0129188437219080e-18  -1.1161867781117200e-07 6.9743836273068770e-07 1.9812225817266722e-08  0.0000000000000000e+00 0.0000000000000000e+00 0.0000000000000000e+00  0.0000000000000000e+00 0.0000000000000000e+00 0.0000000000000000e+00  -1.0900255073754658e-07 1.1489915873788988e-06 -6.3994926648005769e-08  -7.8144099613898077e-08 1.4884220466492143e-06 -6.7522437392671290e-08  -5.1400219226702946e-08 1.7660787559987755e-06 -5.0740522685154698e-08  -2.9975926638372230e-08 2.0009501166665377e-06 -3.5483035469402719e-08  -1.2232260424144749e-08 2.2017032010125701e-06 -2.5291882019808234e-08  3.0573603911102192e-09 2.3729278721258543e-06 -1.9082294153967197e-08  1.6607133148514979e-08 2.5175238754676862e-06 -1.5305717392673080e-08  2.8801118811017502e-08 2.6377092492066368e-06 -1.2841232377367637e-08  3.9831686020609233e-08 2.7354393441081001e-06 -1.0991487746650398e-08  4.9780104240144905e-08 2.8125686223774077e-06 -9.3076516670503964e-09  5.8653917547406775e-08 2.8709029269851914e-06 -7.4140919170286294e-09  6.6387973060480647e-08 2.9122059466541170e-06 -4.8363357338924879e-09  7.2798294379088069e-08 2.9381880111003454e-06 -7.9048243959614660e-10  7.7443605835273997e-08 2.9504971710043342e-06 6.1048122360434369e-09  7.9286589216777574e-08 2.9507488744245749e-06 1.8147786757565019e-08  7.5989726493590139e-08 2.9406853121551961e-06 3.8534721025343750e-08  6.2892018140030128e-08 2.9226656107325700e-06 6.9696151523602597e-08  3.2773349513927533e-08 2.9007362360657825e-06 1.0389733469544157e-07  -9.9641150278617486e-09 2.8827862057377225e-06 3.4025302048743661e-08  -2.2041590692255498e-08 2.8920642632559910e-06 -4.4390122886762321e-08  0.0000000000000000e+00 0.0000000000000000e+00 0.0000000000000000e+00  1.3611678268389024e-18 2.9009522565565111e-06 -7.5166969010657918e-19  0.0000000000000000e+00 0.0000000000000000e+00 0.0000000000000000e+00  2.2041590694987190e-08 2.8920642632566648e-06 4.4390122885395720e-08  0.0000000000000000e+00 0.0000000000000000e+00 0.0000000000000000e+00  9.9641150304426844e-09 2.8827862057389689e-06 -3.4025302050539020e-08  1.1161867781122893e-07 6.9743836273022183e-07 -1.9812225817402204e-08  1.0900255073759779e-07 1.1489915873781672e-06 6.3994926647889726e-08  7.8144099613869172e-08 1.4884220466483247e-06 6.7522437392590584e-08  5.1400219226541560e-08 1.7660787559977955e-06 5.0740522685078915e-08  2.9975926638048101e-08 2.0009501166654980e-06 3.5483035469286556e-08  1.2232260423635702e-08 2.2017032010115367e-06 2.5291882019619094e-08  -3.0573603918314529e-09 2.3729278721248476e-06 1.9082294153685631e-08  -1.6607133149436451e-08 2.5175238754667303e-06 1.5305717392270216e-08  -2.8801118812122142e-08 2.6377092492057652e-06 1.2841232376879205e-08  -3.9831686021878790e-08 2.7354393441073721e-06 1.0991487746080772e-08  -4.9780104241514140e-08 2.8125686223768317e-06 9.3076516663586401e-09  -5.8653917548797226e-08 2.8709029269847933e-06 7.4140919161121546e-09  -6.6387973061748338e-08 2.9122059466539196e-06 4.8363357326782943e-09  -7.2798294380116910e-08 2.9381880111004021e-06 7.9048243831225114e-10  -7.7443605835935649e-08 2.9504971710047010e-06 -6.1048122372457555e-09  -7.9286589216898792e-08 2.9507488744253169e-06 -1.8147786758719032e-08  -7.5989726493068856e-08 2.9406853121562290e-06 -3.8534721026622194e-08  -6.2892018138868687e-08 2.9226656107338202e-06 -6.9696151525174002e-08  -3.2773349512099391e-08 2.9007362360671068e-06 -1.0389733469745803e-07  -1.7203536930767745e-07 1.0250397880088975e-06 1.0314788667249511e-07  0.0000000000000000e+00 0.0000000000000000e+00 0.0000000000000000e+00  0.0000000000000000e+00 0.0000000000000000e+00 0.0000000000000000e+00  -5.0632059225477213e-07 1.3068388769983312e-06 5.7448040206784481e-09  -7.2747434500046950e-07 1.5819407290857211e-06 -2.3575680558249686e-08  -8.4567776514766519e-07 1.8313209612356224e-06 -3.0772331010421035e-08  -9.0081953225230204e-07 2.0526644587238882e-06 -3.0656969633025244e-08  -9.2223946366037647e-07 2.2462374632017156e-06 -2.8546068999274918e-08  -9.2683768071661132e-07 2.4129756777054435e-06 -2.6157431177822665e-08  -9.2347516988712212e-07 2.5541839555947399e-06 -2.3914428189596247e-08  -9.1656135224913402e-07 2.6714104949283499e-06 -2.1843016375823464e-08  -9.0815787235417212e-07 2.7663486564651532e-06 -1.9881748064285580e-08  -8.9904072652632290e-07 2.8407655051672307e-06 -1.7968819773572492e-08  -8.8911607130629744e-07 2.8964526110711007e-06 -1.6054201383914501e-08  -8.7737525485081514e-07 2.9351869867170912e-06 -1.4088244423208276e-08  -8.6137502604586732e-07 2.9586876994426955e-06 -1.1994478688167850e-08  -8.3604092057269149e-07 2.9685522230873438e-06 -9.6037662355800088e-09  -7.9145686303223963e-07 2.9661593687212359e-06 -6.4832967206761664e-09  -7.0958287540501778e-07 2.9525688393162021e-06 -1.5237718389755223e-09  -5.6218251540601570e-07 2.9287261746765632e-06 7.9288293809421917e-09  -3.2394652815592986e-07 2.8975651140037810e-06 2.7421382470957698e-08  -9.2037888976246577e-08 2.8665497378032442e-06 4.6278720139861091e-08  -6.8045766280795364e-08 2.6464528379619426e-06 1.6011727380642846e-08  0.0000000000000000e+00 0.0000000000000000e+00 0.0000000000000000e+00  1.1489307113229584e-18 2.5208664165768591e-06 -9.8536363686697173e-19  0.0000000000000000e+00 0.0000000000000000e+00 0.0000000000000000e+00  6.8045766283617293e-08 2.6464528379619019e-06 -1.6011727382629072e-08  0.0000000000000000e+00 0.0000000000000000e+00 0.0000000000000000e+00  9.2037888979421428e-08 2.8665497378044381e-06 -4.6278720142101996e-08  1.7203536930796520e-07 1.0250397880081635e-06 -1.0314788667272124e-07  5.0632059225520761e-07 1.3068388769974617e-06 -5.7448040208375712e-09  7.2747434500113