<?xml version="1.0"?>
<VTKFile type="UnstructuredGrid"  version="0.1"  >
<UnstructuredGrid>
<Piece  NumberOfPoints="2850" NumberOfCells="5634">
<Points>
<DataArray  type="Float64"  NumberOfComponents="3"  format="ascii">5.375 0.125 0  5.25 0 0  5.375 0 0  5.5 0 0  5.25 0.125 0  5.25 0.25 0  5.125 0.125 0  5.125 0 0  5 0 0  5.5 0.25 0  5.375 0.25 0  5.5 0.125 0  5.375 0.375 0  5.5 0.375 0  5.5 0.5 0  5.375 0 0.125  5.25 0 0.125  5.25 0 0.25  5.125 0 0.125  5.5 0 0.25  5.375 0 0.25  5.5 0 0.125  5.375 0 0.375  5.5 0 0.375  5.5 0 0.5  5.125 0.375 0  5.25 0.5 0  5.25 0.375 0  5.125 0.5 0  5 0.5 0  5.375 0.5 0  5 0.25 0  5.125 0.25 0  5 0.375 0  5 0.125 0  5.125 0 0.375  5.25 0 0.5  5.25 0 0.375  5.125 0 0.5  5 0 0.5  5.375 0 0.5  5 0 0.25  5.125 0 0.25  5 0 0.375  5 0 0.125  5.625 0.375 0  5.625 0.25 0  5.75 0.25 0  5.625 0.125 0  5.75 0.5 0  5.75 0.375 0  5.625 0.5 0  5.875 0.375 0  5.875 0.5 0  6 0.5 0  5.625 0 0.375  5.625 0 0.25  5.75 0 0.25  5.625 0 0.125  5.75 0 0.5  5.75 0 0.375  5.625 0 0.5  5.875 0 0.375  5.875 0 0.5  6 0 0.5  5.875 0.125 0  6 0.25 0  5.875 0.25 0  6 0.125 0  6 0 0  6 0.375 0  5.75 0 0  5.75 0.125 0  5.875 0 0  5.625 0 0  5.875 0 0.125  6 0 0.25  5.875 0 0.25  6 0 0.125  6 0 0.375  5.75 0 0.125  5.375 0.625 0  5.5 0.75 0  5.5 0.625 0  5.375 0.75 0  5.25 0.75 0  5.375 0.875 0  5.5 0.875 0  5.5 1 0  5.25 0.625 0  5.125 0.625 0  5.875 0.625 0  5.75 0.625 0  5.75 0.75 0  5.625 0.625 0  6 0.75 0  5.875 0.75 0  6 0.625 0  5.875 0.875 0  6 0.875 0  6 1 0  5.625 0.875 0  5.625 0.75 0  5.75 1 0  5.75 0.875 0  5.625 1 0  5.875 1 0  5.375 0 0.625  5.5 0 0.75  5.5 0 0.625  5.375 0 0.75  5.25 0 0.75  5.375 0 0.875  5.5 0 0.875  5.5 0 1  5.25 0 0.625  5.125 0 0.625  5.875 0 0.625  5.75 0 0.625  5.75 0 0.75  5.625 0 0.625  6 0 0.75  5.875 0 0.75  6 0 0.625  5.875 0 0.875  6 0 0.875  6 0 1  5.625 0 0.875  5.625 0 0.75  5.75 0 1  5.75 0 0.875  5.625 0 1  5.875 0 1  5.25 0 1  5.25 0 0.875  5.375 0 1  5.125 0.875 0  5.25 1 0  5.25 0.875 0  5.125 1 0  5 1 0  5.375 1 0  5 0.75 0  5.125 0.75 0  5 0.875 0  5 0.625 0  6.125 0.375 0  6.25 0.5 0  6.125 0.5 0  6.25 0.375 0  6.25 0.25 0  6.375 0.375 0  6.375 0.5 0  6.5 0.5 0  6.125 0.25 0  6.125 0.125 0  6.125 0 0.375  6.25 0 0.5  6.125 0 0.5  6.25 0 0.375  6.25 0 0.25  6.375 0 0.375  6.375 0 0.5  6.5 0 0.5  6.125 0 0.25  6.125 0 0.125  6.375 0.125 0  6.5 0.25 0  6.375 0.25 0  6.5 0.125 0  6.5 0 0  6.5 0.375 0  6.25 0 0  6.25 0.125 0  6.375 0 0  6.125 0 0  6.375 0 0.125  6.5 0 0.25  6.375 0 0.25  6.5 0 0.125  6.5 0 0.375  6.25 0 0.125  6.375 0.625 0  6.25 0.625 0  6.25 0.75 0  6.125 0.625 0  6.5 0.75 0  6.375 0.75 0  6.5 0.625 0  6.375 0.875 0  6.5 0.875 0  6.5 1 0  6.125 0.875 0  6.125 0.75 0  6.25 1 0  6.25 0.875 0  6.125 1 0  6.375 1 0  6.375 0 0.625  6.25 0 0.625  6.25 0 0.75  6.125 0 0.625  6.5 0 0.75  6.375 0 0.75  6.5 0 0.625  6.375 0 0.875  6.5 0 0.875  6.5 0 1  6.125 0 0.875  6.125 0 0.75  6.25 0 1  6.25 0 0.875  6.125 0 1  6.375 0 1  6.625 0.375 0  6.75 0.5 0  6.625 0.5 0  6.75 0.375 0  6.75 0.25 0  6.875 0.375 0  6.875 0.5 0  7 0.5 0  6.625 0.25 0  6.625 0.125 0  6.625 0 0.375  6.75 0 0.5  6.625 0 0.5  6.75 0 0.375  6.75 0 0.25  6.875 0 0.375  6.875 0 0.5  7 0 0.5  6.625 0 0.25  6.625 0 0.125  6.875 0.125 0  7 0.25 0  6.875 0.25 0  7 0.125 0  7 0 0  7 0.375 0  6.75 0 0  6.75 0.125 0  6.875 0 0  6.625 0 0  6.875 0 0.125  7 0 0.25  6.875 0 0.25  7 0 0.125  7 0 0.375  6.75 0 0.125  6.875 0.625 0  6.75 0.625 0  6.75 0.75 0  6.625 0.625 0  7 0.75 0  6.875 0.75 0  7 0.625 0  6.875 0.875 0  7 0.875 0  7 1 0  6.625 0.875 0  6.625 0.75 0  6.75 1 0  6.75 0.875 0  6.625 1 0  6.875 1 0  6.875 0 0.625  6.75 0 0.625  6.75 0 0.75  6.625 0 0.625  7 0 0.75  6.875 0 0.75  7 0 0.625  6.875 0 0.875  7 0 0.875  7 0 1  6.625 0 0.875  6.625 0 0.75  6.75 0 1  6.75 0 0.875  6.625 0 1  6.875 0 1  7.125 0.375 0  7.25 0.5 0  7.125 0.5 0  7.25 0.375 0  7.25 0.25 0  7.375 0.375 0  7.375 0.5 0  7.5 0.5 0  7.125 0.25 0  7.125 0.125 0  7.125 0 0.375  7.25 0 0.5  7.125 0 0.5  7.25 0 0.375  7.25 0 0.25  7.375 0 0.375  7.375 0 0.5  7.5 0 0.5  7.125 0 0.25  7.125 0 0.125  7.375 0.125 0  7.5 0.25 0  7.375 0.25 0  7.5 0.125 0  7.5 0 0  7.5 0.375 0  7.25 0 0  7.25 0.125 0  7.375 0 0  7.125 0 0  7.375 0 0.125  7.5 0 0.25  7.375 0 0.25  7.5 0 0.125  7.5 0 0.375  7.25 0 0.125  7.375 0.625 0  7.25 0.625 0  7.25 0.75 0  7.125 0.625 0  7.5 0.75 0  7.375 0.75 0  7.5 0.625 0  7.375 0.875 0  7.5 0.875 0  7.5 1 0  7.125 0.875 0  7.125 0.75 0  7.25 1 0  7.25 0.875 0  7.125 1 0  7.375 1 0  7.375 0 0.625  7.25 0 0.625  7.25 0 0.75  7.125 0 0.625  7.5 0 0.75  7.375 0 0.75  7.5 0 0.625  7.375 0 0.875  7.5 0 0.875  7.5 0 1  7.125 0 0.875  7.125 0 0.75  7.25 0 1  7.25 0 0.875  7.125 0 1  7.375 0 1  7.625 0.375 0  7.75 0.5 0  7.625 0.5 0  7.75 0.375 0  7.75 0.25 0  7.875 0.375 0  7.875 0.5 0  8 0.5 0  7.625 0.25 0  7.625 0.125 0  7.625 0 0.375  7.75 0 0.5  7.625 0 0.5  7.75 0 0.375  7.75 0 0.25  7.875 0 0.375  7.875 0 0.5  8 0 0.5  7.625 0 0.25  7.625 0 0.125  7.875 0.125 0  8 0.25 0  7.875 0.25 0  8 0.125 0  8 0 0  8 0.375 0  7.75 0 0  7.75 0.125 0  7.875 0 0  7.625 0 0  7.875 0 0.125  8 0 0.25  7.875 0 0.25  8 0 0.125  8 0 0.375  7.75 0 0.125  7.875 0.625 0  7.75 0.625 0  7.75 0.75 0  7.625 0.625 0  8 0.75 0  7.875 0.75 0  8 0.625 0  7.875 0.875 0  8 0.875 0  8 1 0  7.625 0.875 0  7.625 0.75 0  7.75 1 0  7.75 0.875 0  7.625 1 0  7.875 1 0  7.875 0 0.625  7.75 0 0.625  7.75 0 0.75  7.625 0 0.625  8 0 0.75  7.875 0 0.75  8 0 0.625  7.875 0 0.875  8 0 0.875  8 0 1  7.625 0 0.875  7.625 0 0.75  7.75 0 1  7.75 0 0.875  7.625 0 1  7.875 0 1  8.125 0.375 0  8.25 0.5 0  8.125 0.5 0  8.25 0.375 0  8.25 0.25 0  8.375 0.375 0  8.375 0.5 0  8.5 0.5 0  8.125 0.25 0  8.125 0.125 0  8.125 0 0.375  8.25 0 0.5  8.125 0 0.5  8.25 0 0.375  8.25 0 0.25  8.375 0 0.375  8.375 0 0.5  8.5 0 0.5  8.125 0 0.25  8.125 0 0.125  8.375 0.125 0  8.5 0.25 0  8.375 0.25 0  8.5 0.125 0  8.5 0 0  8.5 0.375 0  8.25 0 0  8.25 0.125 0  8.375 0 0  8.125 0 0  8.375 0 0.125  8.5 0 0.25  8.375 0 0.25  8.5 0 0.125  8.5 0 0.375  8.25 0 0.125  8.375 0.625 0  8.25 0.625 0  8.25 0.75 0  8.125 0.625 0  8.5 0.75 0  8.375 0.75 0  8.5 0.625 0  8.375 0.875 0  8.5 0.875 0  8.5 1 0  8.125 0.875 0  8.125 0.75 0  8.25 1 0  8.25 0.875 0  8.125 1 0  8.375 1 0  8.375 0 0.625  8.25 0 0.625  8.25 0 0.75  8.125 0 0.625  8.5 0 0.75  8.375 0 0.75  8.5 0 0.625  8.375 0 0.875  8.5 0 0.875  8.5 0 1  8.125 0 0.875  8.125 0 0.75  8.25 0 1  8.25 0 0.875  8.125 0 1  8.375 0 1  8.625 0.375 0  8.75 0.5 0  8.625 0.5 0  8.75 0.375 0  8.75 0.25 0  8.875 0.375 0  8.875 0.5 0  9 0.5 0  8.625 0.25 0  8.625 0.125 0  8.625 0 0.375  8.75 0 0.5  8.625 0 0.5  8.75 0 0.375  8.75 0 0.25  8.875 0 0.375  8.875 0 0.5  9 0 0.5  8.625 0 0.25  8.625 0 0.125  8.875 0.125 0  9 0.25 0  8.875 0.25 0  9 0.125 0  9 0 0  9 0.375 0  8.75 0 0  8.75 0.125 0  8.875 0 0  8.625 0 0  8.875 0 0.125  9 0 0.25  8.875 0 0.25  9 0 0.125  9 0 0.375  8.75 0 0.125  8.875 0.625 0  8.75 0.625 0  8.75 0.75 0  8.625 0.625 0  9 0.75 0  8.875 0.75 0  9 0.625 0  8.875 0.875 0  9 0.875 0  9 1 0  8.625 0.875 0  8.625 0.75 0  8.75 1 0  8.75 0.875 0  8.625 1 0  8.875 1 0  8.875 0 0.625  8.75 0 0.625  8.75 0 0.75  8.625 0 0.625  9 0 0.75  8.875 0 0.75  9 0 0.625  8.875 0 0.875  9 0 0.875  9 0 1  8.625 0 0.875  8.625 0 0.75  8.75 0 1  8.75 0 0.875  8.625 0 1  8.875 0 1  9.125 0.375 0  9.25 0.5 0  9.125 0.5 0  9.25 0.375 0  9.25 0.25 0  9.375 0.375 0  9.375 0.5 0  9.5 0.5 0  9.125 0.25 0  9.125 0.125 0  9.125 0 0.375  9.25 0 0.5  9.125 0 0.5  9.25 0 0.375  9.25 0 0.25  9.375 0 0.375  9.375 0 0.5  9.5 0 0.5  9.125 0 0.25  9.125 0 0.125  9.375 0.125 0  9.5 0.25 0  9.375 0.25 0  9.5 0.125 0  9.5 0 0  9.5 0.375 0  9.25 0 0  9.25 0.125 0  9.375 0 0  9.125 0 0  9.375 0 0.125  9.5 0 0.25  9.375 0 0.25  9.5 0 0.125  9.5 0 0.375  9.25 0 0.125  9.375 0.625 0  9.25 0.625 0  9.25 0.75 0  9.125 0.625 0  9.5 0.75 0  9.375 0.75 0  9.5 0.625 0  9.375 0.875 0  9.5 0.875 0  9.5 1 0  9.125 0.875 0  9.125 0.75 0  9.25 1 0  9.25 0.875 0  9.125 1 0  9.375 1 0  9.375 0 0.625  9.25 0 0.625  9.25 0 0.75  9.125 0 0.625  9.5 0 0.75  9.375 0 0.75  9.5 0 0.625  9.375 0 0.875  9.5 0 0.875  9.5 0 1  9.125 0 0.875  9.125 0 0.75  9.25 0 1  9.25 0 0.875  9.125 0 1  9.375 0 1  9.625 0.375 0  9.75 0.5 0  9.625 0.5 0  9.75 0.375 0  9.75 0.25 0  9.875 0.375 0  9.875 0.5 0  10 0.5 0  9.625 0.25 0  9.625 0.125 0  9.625 0 0.375  9.75 0 0.5  9.625 0 0.5  9.75 0 0.375  9.75 0 0.25  9.875 0 0.375  9.875 0 0.5  10 0 0.5  9.625 0 0.25  9.625 0 0.125  9.875 0.125 0  10 0.25 0  9.875 0.25 0  10 0.125 0  10 0 0  10 0.375 0  9.75 0 0  9.75 0.125 0  9.875 0 0  9.625 0 0  9.875 0 0.125  10 0 0.25  9.875 0 0.25  10 0 0.125  10 0 0.375  9.75 0 0.125  9.875 0.625 0  9.75 0.625 0  9.75 0.75 0  9.625 0.625 0  10 0.75 0  9.875 0.75 0  10 0.625 0  9.875 0.875 0  10 0.875 0  10 1 0  9.625 0.875 0  9.625 0.75 0  9.75 1 0  9.75 0.875 0  9.625 1 0  9.875 1 0  9.875 0 0.625  9.75 0 0.625  9.75 0 0.75  9.625 0 0.625  10 0 0.75  9.875 0 0.75  10 0 0.625  9.875 0 0.875  10 0 0.875  10 0 1  9.625 0 0.875  9.625 0 0.75  9.75 0 1  9.75 0 0.875  9.625 0 1  9.875 0 1  10 0.375 0.125  10 0.5 0.25  10 0.5 0.125  10 0.375 0.25  10 0.25 0.25  10 0.375 0.375  10 0.5 0.375  10 0.5 0.5  10 0.25 0.125  10 0.125 0.125  10 0.125 0.375  10 0.25 0.5  10 0.125 0.5  10 0.25 0.375  10 0.375 0.5  10 0.125 0.25  10 0.625 0.375  10 0.625 0.25  10 0.75 0.25  10 0.625 0.125  10 0.75 0.5  10 0.75 0.375  10 0.625 0.5  10 0.875 0.375  10 0.875 0.5  10 1 0.5  10 0.875 0.125  10 0.75 0.125  10 1 0.25  10 0.875 0.25  10 1 0.125  10 1 0.375  10 0.375 0.625  10 0.25 0.625  10 0.25 0.75  10 0.125 0.625  10 0.5 0.75  10 0.375 0.75  10 0.5 0.625  10 0.375 0.875  10 0.5 0.875  10 0.5 1  10 0.875 0.625  10 0.75 0.625  10 0.75 0.75  10 0.625 0.625  10 1 0.75  10 0.875 0.75  10 1 0.625  10 0.875 0.875  10 1 0.875  10 1 1  10 0.625 0.875  10 0.625 0.75  10 0.75 1  10 0.75 0.875  10 0.625 1  10 0.875 1  10 0.125 0.875  10 0.125 0.75  10 0.25 1  10 0.25 0.875  10 0.125 1  10 0.375 1  5.375 1.125 0  5.5 1.25 0  5.5 1.125 0  5.375 1.25 0  5.25 
[...]
<PointData  Vectors="t"> 
<DataArray  type="Float64"  Name="t"  NumberOfComponents="3" format="ascii">-1.1447786072878521e-06 2.8229267571757785e-06 -3.2855385306746198e-08  -9.0367553980156170e-07 2.8060103728098574e-06 1.8922574488369730e-08  -8.9027721497321503e-07 2.8244636759671450e-06 1.9096690112492013e-08  -8.9904072652874456e-07 2.8407655051618033e-06 1.7968819773337844e-08  -1.1152636840690894e-06 2.8045089985840460e-06 1.7130801050523585e-08  -1.2378539833967567e-06 2.8027532423567517e-06 1.4196554469733478e-08  -1.1486924742432820e-06 2.7858199807904259e-06 -3.4525345752404207e-08  -8.9459601893564417e-07 2.7872455571508898e-06 2.0043685240048283e-08  -9.0815787235562065e-07 2.7663486564598838e-06 1.9881748064141604e-08  -1.2342589360938518e-06 2.8372880140946859e-06 1.3475547244076731e-08  -1.2183339586623327e-06 2.8203934952320412e-06 1.4328377602320780e-08  -1.1111168527412023e-06 2.8392061481242145e-06 1.6302176486131547e-08  -1.2144005557388861e-06 2.8191135264511539e-06 -2.3473471611705578e-08  -1.1954685093431826e-06 2.8353791801253175e-06 1.1648471579139345e-08  -1.0895560412670314e-06 2.8341940568736539e-06 8.9830060010718461e-09  -5.9756450617164731e-07 -5.6286317736597901e-06 1.7108568659241484e-08  -6.1535864560551377e-07 2.7935583428466396e-06 1.7491729866336906e-08  -3.4961727803262851e-07 2.7887802387145405e-06 1.4950425675363322e-08  -6.0213676623703485e-07 -5.5532755235578873e-06 1.8084941722286706e-08  -3.4487476912296508e-07 2.8243215365719387e-06 1.3952017237966987e-08  -3.5128790257784358e-07 2.8076565501332831e-06 1.4514195956192586e-08  -6.1070717731350471e-07 2.8289708724339597e-06 1.6491238562045028e-08  -1.2904051523734587e-07 -5.5997831018932561e-06 1.2179054965542973e-08  -1.3394101249156830e-07 2.8149133543624834e-06 1.1682724127971426e-08  4.9780104241671523e-08 2.8125686223721633e-06 9.3076516669364158e-09  -1.2172674084895199e-06 2.7822900981059303e-06 -2.4670363097080297e-08  -1.0920228646908549e-06 2.7999747613095369e-06 9.4664889550259673e-09  -1.1984972710677984e-06 2.8009927456744159e-06 1.2240395642013216e-08  -1.0798373121013380e-06 2.7807256378764170e-06 1.0028573091070284e-08  -1.0941817303307332e-06 2.7608245144101580e-06 9.9525410798296664e-09  -1.0775303232527924e-06 2.8173961277378042e-06 9.5550449534409411e-09  -1.2411540517335245e-06 2.7633007703381829e-06 1.4921607191461494e-08  -1.2217407165739091e-06 2.7834070590612191e-06 1.5038773594144769e-08  -1.2012181992713395e-06 2.7616817621319117e-06 1.2836518365042305e-08  -1.1191848301802463e-06 2.7649014841907301e-06 1.7965638911193943e-08  -1.3391631513595093e-07 -5.5230261699765746e-06 1.3119057193271637e-08  4.4939155538368552e-08 2.7764652906217922e-06 1.0152074846654447e-08  -1.3873705484203401e-07 2.7787818712667493e-06 1.2652418938141054e-08  3.5937047647461481e-08 2.7569840409812281e-06 1.0599115397889146e-08  3.9831686021833791e-08 2.7354393441029133e-06 1.0991487746594014e-08  4.0906811893731865e-08 2.7956449435300813e-06 9.7430712047427305e-09  -3.5439888199228461e-07 2.7483237548545897e-06 1.5947156749131348e-08  -3.5603352988451853e-07 2.7695988499826671e-06 1.5526167230778074e-08  -1.4368785075033021e-07 2.7377312893818098e-06 1.3617789666079494e-08  -6.1994771244859008e-07 2.7532363214124535e-06 1.8494322729509829e-08  -1.2111996320539974e-06 2.8510853165388377e-06 -2.2282024791721691e-08  -1.2146270124396356e-06 2.8525501776546095e-06 1.3623001749207374e-08  -1.2303234994360249e-06 2.8670789304404885e-06 1.2753808732161697e-08  -1.1406095011448037e-06 2.8552271929807635e-06 -3.1193334682931485e-08  -1.0867396666760793e-06 2.8635951919616124e-06 8.4987379737119848e-09  -1.1920877640906292e-06 2.8649833934175380e-06 1.1060648854537481e-08  -1.0749125678771118e-06 2.8491920715189528e-06 9.0848770329816866e-09  -1.2075865344534277e-06 2.8783434910051232e-06 -2.1091819623226947e-08  -1.0719140119856740e-06 2.8762168836020931e-06 8.6181627100990667e-09  -1.0834692157334870e-06 2.8882719598111679e-06 8.0099981063868928e-09  -1.2431635454096892e-07 -5.6669337657758139e-06 1.1213632491304617e-08  -3.4657876043043046e-07 2.8409187310532534e-06 1.3481212703114219e-08  -3.4015286971152082e-07 2.8551717800392408e-06 1.2915426672958722e-08  -5.9291356605221370e-07 -5.6943970129418733e-06 1.6126541437411045e-08  5.4353455099550161e-08 2.8439738371970305e-06 8.4122672685252155e-09  -1.2929125859948781e-07 2.8463631301702662e-06 1.0661868018006661e-08  4.5612594104599777e-08 2.8295040713368750e-06 8.8578221788128359e-09  -1.1973021137209916e-07 -5.7249381118009915e-06 1.0176714197432281e-08  5.0051670274187508e-08 2.8587992058971235e-06 7.8926083418301439e-09  5.8653917549182858e-08 2.8709029269799423e-06 7.4140919166800497e-09  -1.1361127156610013e-06 2.8829273628805288e-06 -2.9533742715681942e-08  -1.2259339809641374e-06 2.8922908587281488e-06 1.2026336066426877e-08  -1.2105435037566361e-06 2.8800481021951146e-06 1.2922708770160163e-08  -1.1019201837507040e-06 2.8946942111133964e-06 1.4662301006635601e-08  -8.8911607130945168e-07 2.8964526110655750e-06 1.6054201383561043e-08  -1.1882443012472766e-06 2.8899336024366173e-06 1.0476877279423638e-08  -8.9421746001605092e-07 2.8708384213214961e-06 1.7014613644431196e-08  -1.1067032322668512e-06 2.8692000433442925e-06 1.5479327511010270e-08  -8.8107587187414282e-07 2.8847675139354421e-06 1.7221673748338437e-08  -8.8579071216516373e-07 2.8568933702354273e-06 1.8156043591369533e-08  -5.8813626326146284e-07 -5.7510288583196041e-06 1.5121108893525042e-08  -3.3540665846169083e-07 2.8815533250664917e-06 1.1799658498848755e-08  -3.4187542582513017e-07 2.8696209325074326e-06 1.2386811440692349e-08  -6.0106645307196891e-07 2.8860030143923623e-06 1.4410202366253367e-08  -1.2476855632627376e-07 2.8733673093464473e-06 9.5370421209061295e-09  -6.0596579503727560e-07 2.8597078349503707e-06 1.5471810880465182e-08  -8.8798058131951404e-07 2.8166277210030247e-06 -1.4086113251274123e-08  -6.2454320506232017e-07 2.8322058313264603e-06 4.4912498314727190e-09  -8.7693090080799414e-07 2.8327380203712811e-06 6.9906653338775339e-09  -6.1849894498889749e-07 2.8155282652562630e-06 4.7783520873909943e-09  -6.2580474942761768e-07 2.7982482973432528e-06 4.7338542694688871e-09  -3.2256694284053364e-07 2.8153694799101544e-06 -4.6956950244494736e-09  -3.1888710552383561e-07 2.8313732729593001e-06 2.3304791344452687e-09  -2.1241703444919195e-19 2.8315240764531927e-06 1.2235609473611111e-19  -8.7879836879689417e-07 2.7986707323986206e-06 7.3457915733475862e-09  -8.8972067233630549e-07 2.7800970028855867e-06 -1.4805813119915904e-08  -8.8361435615804373e-07 2.8750909053554283e-06 -1.2653241877070067e-08  -8.7477423419018452e-07 2.8619515281699133e-06 6.6379190485779056e-09  -6.2306396630919250e-07 2.8612878202222812e-06 4.2481390552277822e-09  -8.8596507287865968e-07 2.8482666032884177e-06 -1.3369473249025513e-08  -6.2130466369335646e-07 2.8855329825484747e-06 4.0025684156155951e-09  -6.1554855510576152e-07 2.8736695218165287e-06 4.3099657562282416e-09  -8.7224357594908589e-07 2.8863708716115060e-06 6.2874764424328128e-09  -3.2106048527843074e-07 2.8733580283031316e-06 -4.2173971062297956e-09  -3.1725806657550070e-07 2.8844384428458905e-06 2.0960296340641506e-09  0.0000000000000000e+00 2.8845647209756043e-06 9.8371710926987705e-20  -3.2187782104860217e-07 2.8468010380419194e-06 -4.4565130760361402e-09  -6.1714184009736351e-07 2.8470276861023248e-06 4.5432987191805745e-09  -9.8332682299020147e-20 2.8604838628035786e-06 1.1087873736462286e-19  -3.1814392840186607e-07 2.8603447179073263e-06 2.2128855634636379e-09  -1.6256408414776149e-19 2.8462803284378033e-06 1.2124786137480353e-19  -7.1991671301643136e-20 2.8727760480780340e-06 1.1052580011423465e-19  1.8497714471523425e-07 -5.5805406981608628e-06 7.3198818972128918e-09  2.8548688610626386e-07 2.8055138250978909e-06 4.6359207013599483e-09  1.8073980356316311e-07 2.8055375435789695e-06 6.9649502613441895e-09  2.7652556420716240e-07 2.7884351116689411e-06 4.8818822301561100e-09  2.8061084463863549e-07 2.7690729572975537e-06 5.1205067978188794e-09  3.4197199152332825e-07 -5.5709163075724650e-06 2.4420555264886496e-09  3.3777924548351935e-07 2.8008482994555639e-06 2.3121786110705330e-09  3.6396619351466966e-07 2.8031617013250607e-06 -3.8843587512194550e-19  1.7587685191005916e-07 2.7689244984760524e-06 7.6686216168221414e-09  1.7993017493403201e-07 -5.5028465467105871e-06 7.9988787379557287e-09  1.9394847361807029e-07 -5.7075370641702297e-06 5.8441651322009036e-09  1.8523321393411705e-07 2.8374640220217735e-06 6.2130810286149519e-09  2.8990403192953997e-07 2.8372520193967820e-06 4.1169800797320013e-09  1.8965583502387391e-07 -5.6486168364671328e-06 6.6159246724315743e-09  2.9381909945151126e-07 2.8645095161868128e-06 3.5292931414362637e-09  2.8536502682286660e-07 2.8523049189159158e-06 3.8068633850876252e-09  1.8933151642994663e-07 2.8649418100855272e-06 5.3645926204403083e-09  3.5069687191740928e-07 -5.6988343092451985e-06 1.8996290062117179e-09  3.4598191726474507e-07 2.8607284912795989e-06 1.7210715990837825e-09  3.7208301333715109e-07 2.8623778563029143e-06 -3.3422837069991890e-19  3.4660170054626957e-07 -5.6394558177616149e-06 2.1844038526212369e-09  2.8117965036381853e-07 2.8226534048670365e-06 4.3710570705655223e-09  3.6831844291160557e-07 2.8350108991053927e-06 -3.6745543206609152e-19  3.4215824666157601e-07 2.8330136042523201e-06 2.0358420488723660e-09  3.5964813425831781e-07 2.8203695175464057e-06 -3.8327982760545783e-19  3.6373198331006502e-07 2.8501399315410645e-06 -3.5596615638605099e-19  3.5908343508167502e-07 2.7666082559990329e-06 -3.9743944254047992e-19  3.3289684406350525e-07 2.7639937505353876e-06 2.5692589547548546e-09  3.5501997753208353e-07 2.7860313289104344e-06 -3.9845638749617680e-19  -3.2315020018600586e-07 2.7790222523257513e-06 -4.9358487944209183e-09  -2.3604812505485115e-19 2.7976672772623677e-06 1.3259871364103989e-19  -3.1951929882451425e-07 2.7975054392367938e-06 2.4488447746344539e-09  -2.1675211219701527e-19 2.7785872785172425e-06 1.3879723139750868e-19  -2.7997155650506929e-19 2.7588656296280052e-06 1.4119572001681305e-19  -2.5773021564380261e-19 2.8148946776896263e-06 1.3061707010529689e-19  -6.2687336589898204e-07 2.7593496831523519e-06 4.9776782912442659e-09  -6.1966161277900810e-07 2.7791199352760237e-06 5.0150646768118358e-09  -3.2005309499442574e-07 2.7586928988824544e-06 2.5679531651116387e-09  -8.8041035018561491e-07 2.7596662191140009e-06 7.7032605428651279e-09  -1.2034084347147441e-06 2.9010055510101790e-06 -1.9898269108434098e-08  -1.0795629834248580e-06 2.9082805575016386e-06 7.5123499697931247e-09  -1.0683974956048405e-06 2.8985456750287094e-06 8.1550992810260627e-09  -1.1837458107201656e-06 2.9103300384096584e-06 9.8970828140884914e-09  -1.2208931919373866e-06 2.9130707577216537e-06 1.1287336043597959e-08  -1.1984170775722432e-06 2.9191533227744086e-06 -1.8695582533133972e-08  -1.0641400283998871e-06 2.9162043927111803e-06 7.6958359454893425e-09  -1.0747373696610668e-06 2.9236164972914986e-06 6.9999292284377113e-09  -1.2059342178257350e-06 2.9030451885360689e-06 1.2227996872993231e-08  -1.1311469802587631e-06 2.9062279439548959e-06 -2.7871396747577190e-08  -1.1525689170814669e-07 -5.7742527589383370e-06 9.0139085968180491e-09  6.2671136136542647e-08 2.8935750294694304e-06 6.2495329007442166e-09  5.4217184220305528e-08 2.8837669008282733e-06 6.7874861091786394e-09  -1.2034084899842416e-07 2.8961612827376355e-06 8.2433679429164459e-09  -3.3055960322985171e-07 2.9036859821812121e-06 1.0554392359984948e-08  -1.1085710259953108e-07 -5.8153308181875778e-06 7.6563114979327773e-09  5.8097038023356457e-08 2.9046429849136065e-06 5.4666802459199681e-09  6.6387973062364448e-08 2.9122059466489560e-06 4.8363357332574795e-09  -3.3711909592046397e-07 2.8939982791439125e-06 1.1183320575750217e-08  -5.8314028193890985e-07 -5.7989831065971898e-06 1.4071892861761587e-08  -1.1254836557928112e-06 2.9253200903739274e-06 -2.6200473100002528e-08  -1.2148941178336616e-06 2.9295367010987489e-06 1.0529347678064071e-08  -1.2005571297833509e-06 2.9216765992385014e-06 1.1539685955737238e-08  -1.0904370155375698e-06 2.9329562214425180e-06 1.3047919166694954e-08  -8.7737525485389950e-07 2.9351869867117807e-06 1.4088244422669620e-08  -1.1782924109722852e-06 2.9262277867736818e-06 9.3207624973279667e-09  -8.8358178959823492e-07 2.9178294843815693e-06 1.5081310460105902e-08  -1.0965900636507304e-06 2.9158848331463053e-06 1.3851611671937928e-08  -8.7041693560931673e-07 2.9277831799052616e-06 1.5376437001205518e-08  -8.7601471366685460e-07 2.9083194618772449e-06 1.6294493485051517e-08  -5.7777754889326472e-07 -5.8387128965271424e-06 1.2953449194815867e-08  -3.2549503508163416e-07 2.9217860898074079e-06 9.1141363347875159e-09  -3.3221608403672955e-07 2.9142858213630509e-06 9.8101909657433468e-09  -5.9026324847298126e-07 2.9262037734775217e-06 1.2038929702091741e-08  -1.1596006805161851e-07 2.9149801356290224e-06 6.6966614025904029e-09  -5.9589222928658159e-07 2.9080902682807753e-06 1.3278163843476872e-08  -8.7736506040859350e-07 2.9144081826919677e-06 -1.1208368556075552e-08  -8.6919144732049913e-07 2.9060085659717762e-06 5.9390798076653488e-09  -6.1915677815263317e-07 2.9049270553797726e-06 3.7521365007497788e-09  -8.8081123163585977e-07 2.8971436122017255e-06 -1.1934277529798052e-08  -6.1645082201024630e-07 2.9193702366399435e-06 3.4936276175051304e-09  -6.1127471775291430e-07 2.9123554921483131e-06 3.8485413447374542e-09  -8.6538754720961952e-07 2.9208010986610478e-06 5.5919738099241172e-09  -3.1883831348410642e-07 2.9117689528093745e-06 -3.7344782516542677e-09  -3.1480661230455317e-07 2.9177386831822178e-06 1.8638213791662249e-09  -2.4881239129517525e-19 2.9178321045807756e-06 7.1958512591579834e-20  -3.2007109559288191e-07 2.8950390598952979e-06 -3.9772305776124739e-09  -6.1363724045049482e-07 2.8954649595088484e-06 4.0784015955225747e-09  7.7377988231159411e-20 2.9037259791480162e-06 8.5263285843825128e-20  -3.1617435390618498e-07 2.9036145633810696e-06 1.9797861642158502e-09  -5.4188028049253817e-20 2.8943690785845366e-06 9.8496050700487119e-20  -1.1563772941241000e-19 2.9109692719434488e-06 8.5410385492246128e-20  2.0120722039486462e-07 -5.7997361277580233e-06 3.8818040532932219e-09  1.9298949932730768e-07 2.8882074176942801e-06 4.3601941713065832e-09  2.9715662741961715e-07 2.8875052620676133e-06 2.8307795964242396e-09  1.9781870234270713e-07 -5.7577589991675814e-06 4.9540517498184761e-09  2.9980038426143088e-07 2.9064550088815986e-06 1.9672943202647147e-09  2.9206860989631791e-07 2.8988563429035801e-06 2.3500095595457430e-09  1.9613690464872700e-07 2.9074965184530288e-06 3.1234969650881111e-09  3.5694950492538649e-07 -5.7919368289983492e-06 1.1632088854544986e-09  3.5155300760349874e-07 2.9037542695288968e-06 8.7589653954168397e-10  3.7739844516853039e-07 2.9045375944922342e-06 -2.0233239492344763e-19  3.5418504522640777e-07 -5.7495100458037264e-06 1.5676512221592736e-09  2.8902515444719458e-07 2.8776271333584413e-06 3.1497640748869829e-09  3.7516050010018731e-07 2.8854814937326007e-06 -2.8261287694711533e-19  3.4915981542319640e-07 2.8842300595009316e-06 1.3444423422836819e-09  3.6719664376507939e-07 2.8755803707859888e-06 -3.1344845369953934e-19  3.6992154330511461e-07 2.8969272848859474e-06 -2.4727823280361487e-19  -1.1922353483832529e-06 2.9328136746318493e-06 -1.7475219368023745e-08  -1.0685687120731708e-06 2.9341845894764964e-06 6.4643916483883949e-09  -1.0588025646235402e-06 2.9291432052041955e-06 7.2400172004565834e-09  -1.1714364844953662e-06 2.9376145513954699e-06 8.7460741986041375e-09  -1.2074793197560823e-06 2.9417637370981643e-06 9.7418810175510130e-09  -1.1843071692766190e-06 2.9419332431153571e-06 -1.6223201695123938e-08  -1.0518846939473764e-06 2.9372015648936343e-06 6.7858310152196371e-09  -1.0604373994209769e-06 2.9397594037503848e-06 5.8933116068037891e-09  -1.1940452077762510e-06 2.9360425222785987e-06 1.0858474003264875e-08  -1.1187769753242131e-06 2.9403802840363334e-06 -2.4512957334121085e-08  -1.0647386781513683e-07 -5.8486214895268313e-06 6.0130116469043810e-09  6.9777533062453676e-08 2.9270076584374088e-06 3.0653063817318805e-09  6.1671839540575682e-08 2.9216628745595276e-06 3.8306905928984653e-09  -1.1155782908230230e-07 2.9300589678478889e-06 4.7846037114972023e-09  -3.2004384591989845e-07 2.9360654436877008e-06 7.3908912212730173e-09  -1.0202805070368312e-07 -5.8745695482940565e-06 3.9619039953557971e-09  6.4911440121718766e-08 2.9350617033787251e-06 1.7468723438169969e-09  7.2798294380977826e-08 2.9381880110953923e-06 7.9048243894754353e-10  -3.2702748543312952e-07 2.9307188414894091e-06 8.1870560271794315e-09  -5.7182687082042693e-07 -5.8706677269470934e-06 1.1732127659732007e-08  -1.1105197344544959e-06 2.9515636854920297e-06 -2.2795799857888032e-08  -1.1979814972527164e-06 2.9497653996347555e-06 8.9092938016480365e-09  -1.1858582195064324e-06 2.9461922821420233e-06 1.0183913366906462e-08  -1.0738378709492001e-06 2.9553833208361686e-06 1.1458964845087766e-08  -8.6137502604837973e-07 2.9586876994376870e-06 1.1994478687536503e-08  -1.1625237617991631e-06 2.9443814354352651e-06 8.1681101253743868e-09  -8.7014297618483326e-07 2.9487379012241745e-06 1.3064490942103572e-08  -1.0830513734677724e-06 2.9460751080527451e-06 1.2251192616177264e-08  -8.5633468121829911e-07 2.9553866980263837e-06 1.3578984154538784e-08  -8.6399610414480585e-07 2.9433935217546091e-06 1.4470279489958118e-08  -5.6496908450561998e-07 -5.8952923172364392e-06 1.0361866981086080e-08  -3.1396805877663842e-07 2.9467301252818146e-06 5.2648705335569924e-09  -3.2135478972467190e-07 2.9435331482804914e-06 6.2049597988269474e-09  -5.7647252648138595e-07 2.9514499033716676e-06 9.0198109332068133e-09  -1.0704024034133617e-07 2.9416331351668061e-06 2.3560074285719421e-09  -5.8391570518910989e-07 2.9405783496358295e-06 1.0642586533622844e-08  -8.6724571164551433e-07 2.9340052977828315e-06 -9.7061635905075220e-09  -8.6048765497109009e-07 2.9305713008336672e-06 5.2442315555367929e-09  -6.1293349623847985e-07 2.9286348004683023e-06 3.2224447407610681e-09  -8.7298588380122676e-07 2.9267762705183395e-06 -1.0469135909715527e-08  -6.0823436525746974e-07 2.9323092916657414e-06 2.9317596970921828e-09  -6.0428898708318906e-07 2.9306008660946821e-06 3.3911528061434885e-09  -8.5398811310988555e-07 2.9349788222197486e-06 4.8915312920847265e-09  -3.1515682357395232e-07 2.9294529370343310e-06 -3.2303464596327079e-09  -3.1064409124060707e-07 2.9295254566235324e-06 1.6286816728386905e-09  -6.9330512094899318e-19 2.9295657040516749e-06 4.5008356253706356e-20  -3.1725361323325852e-07 2.9233587114852822e-06 -3.4867921242552715e-09  -6.0825835983962670e-07 2.9241751428416299e-06 3.6199278378522994e-09  -5.0924867479522879e-19 2.9266057060646547e-06 5.8559230119941019e-20  -3.1302601374082294e-07 2.9265351225757812e-06 1.7473469215341763e-09  -3.9649067759239428e-19 2.9223671500297629e-06 7.1665810681731036e-20  -6.5270782236944942e-19 2.9281788713828253e-06 5.7661918184227534e-20  2.0614161857756700e-07 -5.8607495279961966e-06 8.2954260865696428e-10  1.9867014286267551e-07 2.9230442509598946e-06 1.5536876688005525e-09  3.0158068108352329e-07 2.9215712323175882e-06 8.6750939805650591e-10  2.0402474447180357e-07 -5.8339178646785900e-06 2.5439217800679414e-09  3.0225671777484685e-07 2.9330633954782401e-06 -5.6293907367479652e-10  2.9569968505517515e-07 2.9299765734116169e-06 4.2309987540791581e-11  2.0044037494669992e-07 2.9350852869059173e-06 -4.8292153355215014e-10  3.5953831943521092e-07 -5.8538382466228663e-06 -5.3043867238171894e-12  3.5309274120062456e-07 2.9318101714093623e-06 -5.0720594795150283e-10  3.7837905372593152e-07 2.9313554067650353e-06 5.6828546548479725e-20  3.5881668849799585e-07 -5.8265643134332784e-06 6.5337537495955888e-10  2.9435888154969332e-07 2.9162279684563398e-06 1.3427366118396311e-09  3.7857538742597572e-07 2.9197588664731137e-06 -8.6572827024174132e-20  3.5295927553373290e-07 2.9195362306327227e-06 2.7598871974380446e-10  3.717274270183795