<?xml version="1.0"?>
<VTKFile type="UnstructuredGrid"  version="0.1"  >
<UnstructuredGrid>
<Piece  NumberOfPoints="2848" NumberOfCells="5630">
<Points>
<DataArray  type="Float64"  NumberOfComponents="3"  format="ascii">4.625 0.375 0  4.75 0.5 0  4.625 0.5 0  4.5 0.5 0  4.75 0.375 0  4.75 0.25 0  4.875 0.375 0  4.875 0.5 0  4.875 0.125 0  4.75 0 0  4.75 0.125 0  4.875 0 0  5 0 0  5 0.25 0  4.875 0.25 0  4.875 0 0.125  4.75 0 0.125  4.75 0 0.25  4.875 0 0.25  4.875 0 0.375  4.875 0.625 0  4.75 0.625 0  4.75 0.75 0  4.625 0.625 0  4.875 0.75 0  4.875 0.875 0  4.75 1 0  4.75 0.875 0  4.875 1.125 0  4.75 1.125 0  4.75 1.25 0  4.875 1.375 0  4.75 1.5 0  4.75 1.375 0  4.875 1.625 0  4.75 1.625 0  4.75 1.75 0  4.875 2 0.625  5 2 0.75  4.875 2 0.75  4.75 2 0.75  4.875 2 0.875  5 2 0.875  5 2 1  5.125 0 1.375  5.125 0 1.5  5 0 1.5  5 0 1.25  5.125 0 1.25  5 0 1.375  5.125 0 1.125  5 0 1.125  5 0 1  5.125 2 1.125  5 2 1.25  5 2 1.125  5.125 0 1.625  5.125 0 1.875  5.125 0 2  5 0 2  5 0 1.75  5.125 0 1.75  5 0 1.875  5 0 1.625  5.125 2 1.875  5.25 2 2  5.125 2 2  5 2 2  5 2 1.75  5.125 2 1.75  5.25 2 1.75  5 2 1.875  5.125 2 1.625  5 2 1.625  5 2 1.5  5.125 0.125 2  5.125 0.375 2  5.25 0.5 2  5.125 0.5 2  5 0.5 2  5 0.25 2  5.125 0.25 2  5 0.375 2  5 0.125 2  5.125 0.625 2  5.125 0.875 2  5.25 1 2  5.125 1 2  5 1 2  5 0.75 2  5.125 0.75 2  5.25 0.75 2  5 0.875 2  5 0.625 2  5.125 1.125 2  5.125 1.375 2  5.25 1.5 2  5.125 1.5 2  5 1.5 2  5 1.25 2  5.125 1.25 2  5.25 1.25 2  5 1.375 2  5 1.125 2  5.125 1.625 2  5.125 1.875 2  5.25 1.875 2  5.25 1.75 2  5 1.75 2  5.125 1.75 2  5 1.875 2  5 1.625 2  0.375 0.125 0  0.25 0 0  0.375 0 0  0.5 0 0  0.25 0.125 0  0.25 0.25 0  0.125 0.125 0  0.125 0 0  0 0 0  0.5 0.25 0  0.375 0.25 0  0.5 0.125 0  0.375 0.375 0  0.5 0.375 0  0.5 0.5 0  0.375 0 0.125  0.25 0 0.125  0.25 0 0.25  0.125 0 0.125  0.5 0 0.25  0.375 0 0.25  0.5 0 0.125  0.375 0 0.375  0.5 0 0.375  0.5 0 0.5  0.125 0.375 0  0.25 0.5 0  0.25 0.375 0  0.125 0.5 0  0 0.5 0  0.375 0.5 0  0 0.25 0  0.125 0.25 0  0 0.375 0  0 0.125 0  0.125 0 0.375  0.25 0 0.5  0.25 0 0.375  0.125 0 0.5  0 0 0.5  0.375 0 0.5  0 0 0.25  0.125 0 0.25  0 0 0.375  0 0 0.125  0 0.125 0.375  0 0.125 0.25  0 0.25 0.25  0 0.125 0.125  0 0.25 0.5  0 0.25 0.375  0 0.125 0.5  0 0.375 0.375  0 0.375 0.5  0 0.5 0.5  0 0.375 0.125  0 0.25 0.125  0 0.5 0.25  0 0.375 0.25  0 0.5 0.125  0 0.5 0.375  0.625 0.375 0  0.625 0.25 0  0.75 0.25 0  0.625 0.125 0  0.75 0.5 0  0.75 0.375 0  0.625 0.5 0  0.875 0.375 0  0.875 0.5 0  1 0.5 0  0.625 0 0.375  0.625 0 0.25  0.75 0 0.25  0.625 0 0.125  0.75 0 0.5  0.75 0 0.375  0.625 0 0.5  0.875 0 0.375  0.875 0 0.5  1 0 0.5  0.875 0.125 0  1 0.25 0  0.875 0.25 0  1 0.125 0  1 0 0  1 0.375 0  0.75 0 0  0.75 0.125 0  0.875 0 0  0.625 0 0  0.875 0 0.125  1 0 0.25  0.875 0 0.25  1 0 0.125  1 0 0.375  0.75 0 0.125  0.375 0.625 0  0.5 0.75 0  0.5 0.625 0  0.375 0.75 0  0.25 0.75 0  0.375 0.875 0  0.5 0.875 0  0.5 1 0  0.25 0.625 0  0.125 0.625 0  0.875 0.625 0  0.75 0.625 0  0.75 0.75 0  0.625 0.625 0  1 0.75 0  0.875 0.75 0  1 0.625 0  0.875 0.875 0  1 0.875 0  1 1 0  0.625 0.875 0  0.625 0.75 0  0.75 1 0  0.75 0.875 0  0.625 1 0  0.875 1 0  0.375 0 0.625  0.5 0 0.75  0.5 0 0.625  0.375 0 0.75  0.25 0 0.75  0.375 0 0.875  0.5 0 0.875  0.5 0 1  0.25 0 0.625  0.125 0 0.625  0.875 0 0.625  0.75 0 0.625  0.75 0 0.75  0.625 0 0.625  1 0 0.75  0.875 0 0.75  1 0 0.625  0.875 0 0.875  1 0 0.875  1 0 1  0.625 0 0.875  0.625 0 0.75  0.75 0 1  0.75 0 0.875  0.625 0 1  0.875 0 1  0 0.375 0.625  0 0.25 0.625  0 0.25 0.75  0 0.125 0.625  0 0.5 0.75  0 0.375 0.75  0 0.5 0.625  0 0.375 0.875  0 0.5 0.875  0 0.5 1  0.125 0 0.875  0.25 0 1  0.25 0 0.875  0.125 0 1  0 0 1  0.375 0 1  0 0 0.75  0.125 0 0.75  0 0 0.875  0 0 0.625  0 0.125 0.875  0 0.25 1  0 0.25 0.875  0 0.125 1  0 0.375 1  0 0.125 0.75  0 0.625 0.375  0 0.625 0.25  0 0.75 0.25  0 0.625 0.125  0 0.75 0.5  0 0.75 0.375  0 0.625 0.5  0 0.875 0.375  0 0.875 0.5  0 1 0.5  0.125 0.875 0  0.25 1 0  0.25 0.875 0  0.125 1 0  0 1 0  0.375 1 0  0 0.75 0  0.125 0.75 0  0 0.875 0  0 0.625 0  0 0.875 0.125  0 1 0.25  0 0.875 0.25  0 1 0.125  0 1 0.375  0 0.75 0.125  0 0.875 0.625  0 0.75 0.625  0 0.75 0.75  0 0.625 0.625  0 1 0.75  0 0.875 0.75  0 1 0.625  0 0.875 0.875  0 1 0.875  0 1 1  0 0.625 0.875  0 0.625 0.75  0 0.75 1  0 0.75 0.875  0 0.625 1  0 0.875 1  1.125 0.375 0  1.25 0.5 0  1.125 0.5 0  1.25 0.375 0  1.25 0.25 0  1.375 0.375 0  1.375 0.5 0  1.5 0.5 0  1.125 0.25 0  1.125 0.125 0  1.125 0 0.375  1.25 0 0.5  1.125 0 0.5  1.25 0 0.375  1.25 0 0.25  1.375 0 0.375  1.375 0 0.5  1.5 0 0.5  1.125 0 0.25  1.125 0 0.125  1.375 0.125 0  1.5 0.25 0  1.375 0.25 0  1.5 0.125 0  1.5 0 0  1.5 0.375 0  1.25 0 0  1.25 0.125 0  1.375 0 0  1.125 0 0  1.375 0 0.125  1.5 0 0.25  1.375 0 0.25  1.5 0 0.125  1.5 0 0.375  1.25 0 0.125  1.375 0.625 0  1.25 0.625 0  1.25 0.75 0  1.125 0.625 0  1.5 0.75 0  1.375 0.75 0  1.5 0.625 0  1.375 0.875 0  1.5 0.875 0  1.5 1 0  1.125 0.875 0  1.125 0.75 0  1.25 1 0  1.25 0.875 0  1.125 1 0  1.375 1 0  1.375 0 0.625  1.25 0 0.625  1.25 0 0.75  1.125 0 0.625  1.5 0 0.75  1.375 0 0.75  1.5 0 0.625  1.375 0 0.875  1.5 0 0.875  1.5 0 1  1.125 0 0.875  1.125 0 0.75  1.25 0 1  1.25 0 0.875  1.125 0 1  1.375 0 1  1.625 0.375 0  1.75 0.5 0  1.625 0.5 0  1.75 0.375 0  1.75 0.25 0  1.875 0.375 0  1.875 0.5 0  2 0.5 0  1.625 0.25 0  1.625 0.125 0  1.625 0 0.375  1.75 0 0.5  1.625 0 0.5  1.75 0 0.375  1.75 0 0.25  1.875 0 0.375  1.875 0 0.5  2 0 0.5  1.625 0 0.25  1.625 0 0.125  1.875 0.125 0  2 0.25 0  1.875 0.25 0  2 0.125 0  2 0 0  2 0.375 0  1.75 0 0  1.75 0.125 0  1.875 0 0  1.625 0 0  1.875 0 0.125  2 0 0.25  1.875 0 0.25  2 0 0.125  2 0 0.375  1.75 0 0.125  1.875 0.625 0  1.75 0.625 0  1.75 0.75 0  1.625 0.625 0  2 0.75 0  1.875 0.75 0  2 0.625 0  1.875 0.875 0  2 0.875 0  2 1 0  1.625 0.875 0  1.625 0.75 0  1.75 1 0  1.75 0.875 0  1.625 1 0  1.875 1 0  1.875 0 0.625  1.75 0 0.625  1.75 0 0.75  1.625 0 0.625  2 0 0.75  1.875 0 0.75  2 0 0.625  1.875 0 0.875  2 0 0.875  2 0 1  1.625 0 0.875  1.625 0 0.75  1.75 0 1  1.75 0 0.875  1.625 0 1  1.875 0 1  2.125 0.375 0  2.25 0.5 0  2.125 0.5 0  2.25 0.375 0  2.25 0.25 0  2.375 0.375 0  2.375 0.5 0  2.5 0.5 0  2.125 0.25 0  2.125 0.125 0  2.125 0 0.375  2.25 0 0.5  2.125 0 0.5  2.25 0 0.375  2.25 0 0.25  2.375 0 0.375  2.375 0 0.5  2.5 0 0.5  2.125 0 0.25  2.125 0 0.125  2.375 0.125 0  2.5 0.25 0  2.375 0.25 0  2.5 0.125 0  2.5 0 0  2.5 0.375 0  2.25 0 0  2.25 0.125 0  2.375 0 0  2.125 0 0  2.375 0 0.125  2.5 0 0.25  2.375 0 0.25  2.5 0 0.125  2.5 0 0.375  2.25 0 0.125  2.375 0.625 0  2.25 0.625 0  2.25 0.75 0  2.125 0.625 0  2.5 0.75 0  2.375 0.75 0  2.5 0.625 0  2.375 0.875 0  2.5 0.875 0  2.5 1 0  2.125 0.875 0  2.125 0.75 0  2.25 1 0  2.25 0.875 0  2.125 1 0  2.375 1 0  2.375 0 0.625  2.25 0 0.625  2.25 0 0.75  2.125 0 0.625  2.5 0 0.75  2.375 0 0.75  2.5 0 0.625  2.375 0 0.875  2.5 0 0.875  2.5 0 1  2.125 0 0.875  2.125 0 0.75  2.25 0 1  2.25 0 0.875  2.125 0 1  2.375 0 1  2.625 0.375 0  2.75 0.5 0  2.625 0.5 0  2.75 0.375 0  2.75 0.25 0  2.875 0.375 0  2.875 0.5 0  3 0.5 0  2.625 0.25 0  2.625 0.125 0  2.625 0 0.375  2.75 0 0.5  2.625 0 0.5  2.75 0 0.375  2.75 0 0.25  2.875 0 0.375  2.875 0 0.5  3 0 0.5  2.625 0 0.25  2.625 0 0.125  2.875 0.125 0  3 0.25 0  2.875 0.25 0  3 0.125 0  3 0 0  3 0.375 0  2.75 0 0  2.75 0.125 0  2.875 0 0  2.625 0 0  2.875 0 0.125  3 0 0.25  2.875 0 0.25  3 0 0.125  3 0 0.375  2.75 0 0.125  2.875 0.625 0  2.75 0.625 0  2.75 0.75 0  2.625 0.625 0  3 0.75 0  2.875 0.75 0  3 0.625 0  2.875 0.875 0  3 0.875 0  3 1 0  2.625 0.875 0  2.625 0.75 0  2.75 1 0  2.75 0.875 0  2.625 1 0  2.875 1 0  2.875 0 0.625  2.75 0 0.625  2.75 0 0.75  2.625 0 0.625  3 0 0.75  2.875 0 0.75  3 0 0.625  2.875 0 0.875  3 0 0.875  3 0 1  2.625 0 0.875  2.625 0 0.75  2.75 0 1  2.75 0 0.875  2.625 0 1  2.875 0 1  3.125 0.375 0  3.25 0.5 0  3.125 0.5 0  3.25 0.375 0  3.25 0.25 0  3.375 0.375 0  3.375 0.5 0  3.5 0.5 0  3.125 0.25 0  3.125 0.125 0  3.125 0 0.375  3.25 0 0.5  3.125 0 0.5  3.25 0 0.375  3.25 0 0.25  3.375 0 0.375  3.375 0 0.5  3.5 0 0.5  3.125 0 0.25  3.125 0 0.125  3.375 0.125 0  3.5 0.25 0  3.375 0.25 0  3.5 0.125 0  3.5 0 0  3.5 0.375 0  3.25 0 0  3.25 0.125 0  3.375 0 0  3.125 0 0  3.375 0 0.125  3.5 0 0.25  3.375 0 0.25  3.5 0 0.125  3.5 0 0.375  3.25 0 0.125  3.375 0.625 0  3.25 0.625 0  3.25 0.75 0  3.125 0.625 0  3.5 0.75 0  3.375 0.75 0  3.5 0.625 0  3.375 0.875 0  3.5 0.875 0  3.5 1 0  3.125 0.875 0  3.125 0.75 0  3.25 1 0  3.25 0.875 0  3.125 1 0  3.375 1 0  3.375 0 0.625  3.25 0 0.625  3.25 0 0.75  3.125 0 0.625  3.5 0 0.75  3.375 0 0.75  3.5 0 0.625  3.375 0 0.875  3.5 0 0.875  3.5 0 1  3.125 0 0.875  3.125 0 0.75  3.25 0 1  3.25 0 0.875  3.125 0 1  3.375 0 1  3.625 0.375 0  3.75 0.5 0  3.625 0.5 0  3.75 0.375 0  3.75 0.25 0  3.875 0.375 0  3.875 0.5 0  4 0.5 0  3.625 0.25 0  3.625 0.125 0  3.625 0 0.375  3.75 0 0.5  3.625 0 0.5  3.75 0 0.375  3.75 0 0.25  3.875 0 0.375  3.875 0 0.5  4 0 0.5  3.625 0 0.25  3.625 0 0.125  3.875 0.125 0  4 0.25 0  3.875 0.25 0  4 0.125 0  4 0 0  4 0.375 0  3.75 0 0  3.75 0.125 0  3.875 0 0  3.625 0 0  3.875 0 0.125  4 0 0.25  3.875 0 0.25  4 0 0.125  4 0 0.375  3.75 0 0.125  3.875 0.625 0  3.75 0.625 0  3.75 0.75 0  3.625 0.625 0  4 0.75 0  3.875 0.75 0  4 0.625 0  3.875 0.875 0  4 0.875 0  4 1 0  3.625 0.875 0  3.625 0.75 0  3.75 1 0  3.75 0.875 0  3.625 1 0  3.875 1 0  3.875 0 0.625  3.75 0 0.625  3.75 0 0.75  3.625 0 0.625  4 0 0.75  3.875 0 0.75  4 0 0.625  3.875 0 0.875  4 0 0.875  4 0 1  3.625 0 0.875  3.625 0 0.75  3.75 0 1  3.75 0 0.875  3.625 0 1  3.875 0 1  4.125 0.375 0  4.25 0.5 0  4.125 0.5 0  4.25 0.375 0  4.25 0.25 0  4.375 0.375 0  4.375 0.5 0  4.125 0.25 0  4.125 0.125 0  4.125 0 0.375  4.25 0 0.5  4.125 0 0.5  4.25 0 0.375  4.25 0 0.25  4.375 0 0.375  4.375 0 0.5  4.5 0 0.5  4.125 0 0.25  4.125 0 0.125  4.375 0.125 0  4.5 0.25 0  4.375 0.25 0  4.5 0.125 0  4.5 0 0  4.5 0.375 0  4.25 0 0  4.25 0.125 0  4.375 0 0  4.125 0 0  4.375 0 0.125  4.5 0 0.25  4.375
[...]
<PointData  Vectors="t"> 
<DataArray  type="Float64"  Name="t"  NumberOfComponents="3" format="ascii">-1.2219920608140041e-06 2.6935089977827377e-06 -2.7096709857626548e-08  -1.0960168682556370e-06 2.7166278313722026e-06 1.0444389881586954e-08  -1.0835125626940392e-06 2.6923092589572704e-06 1.0985271496676953e-08  -1.0974527251800153e-06 2.6672825806038110e-06 1.0945115478839593e-08  -1.2036147334192902e-06 2.7173019927832169e-06 1.3436778364096912e-08  -1.2441422470006170e-06 2.7187556752644081e-06 1.5655585152141247e-08  -1.2198141036762812e-06 2.7404692001343677e-06 -2.5876821904295478e-08  -1.0818459519785254e-06 2.7390663335829343e-06 1.0505409139883571e-08  -1.1523642018102919e-06 2.7436989286077199e-06 -3.6209287325586792e-08  -9.1247453929725183e-07 2.7215562491955121e-06 2.0852788113423284e-08  -1.1228651804962099e-06 2.7201763041883240e-06 1.8807387438855812e-08  -8.9875814521738177e-07 2.7450066020441762e-06 2.0997935987991601e-08  -9.0815787235562065e-07 2.7663486564598838e-06 1.9881748064141604e-08  -1.2411540517335245e-06 2.7633007703381829e-06 1.4921607191461494e-08  -1.2248610045817620e-06 2.7414149827831256e-06 1.5754458443139769e-08  -6.0663920810707393e-07 -5.4678695305814957e-06 1.9072794702557329e-08  -6.2446472229941783e-07 2.7077705065531164e-06 1.9520236948588857e-08  -3.5921377514467914e-07 2.7027267801410239e-06 1.6978479193009615e-08  -3.6082179513887393e-07 2.7265092516652159e-06 1.6555039318054705e-08  -1.3894724692232316e-07 -5.4361995077445485e-06 1.4076751386046531e-08  -8.9119587597821962e-07 2.7385840078841110e-06 -1.5530927336888288e-08  -8.8175400658544661e-07 2.7156375769690839e-06 8.0627790679589702e-09  -6.2773955078031803e-07 2.7154405199043978e-06 5.2243178155373087e-09  -8.9236874884221116e-07 2.6920046185670621e-06 -1.6263338496153910e-08  -6.2063718203440905e-07 2.7377358994913324e-06 5.2533335286472701e-09  -3.2363150581014826e-07 2.7377018607076406e-06 -5.1777358271878214e-09  -2.9268367042856329e-19 2.7150669030245834e-06 1.4802204623530738e-19  -3.2048366287530687e-07 2.7148829605194087e-06 2.6876605077761011e-09  3.2363150580956392e-07 2.7377018607075944e-06 5.1777358266076287e-09  3.2048366287462406e-07 2.7148829605193617e-06 -2.6876605074816203e-09  6.2773955077943944e-07 2.7154405199042958e-06 -5.2243178152394559e-09  8.9119587597721143e-07 2.7385840078839471e-06 1.5530927336301721e-08  1.0960168682544082e-06 2.7166278313721073e-06 -1.0444389881283580e-08  8.8175400658433414e-07 2.7156375769689407e-06 -8.0627790676618668e-09  1.2198141036750249e-06 2.7404692001341513e-06 2.5876821903696086e-08  1.2036147334181029e-06 2.7173019927830987e-06 -1.3436778363794565e-08  1.2441422469996780e-06 2.7187556752643577e-06 -1.5655585151828722e-08  -1.7451624648226098e-07 -5.4150669119102385e-06 -8.6929043439188037e-09  -2.7529175137115938e-07 2.7277044574715993e-06 -5.6012399600091513e-09  -2.6589847955554779e-07 2.7053383500653788e-06 -5.8753775012108419e-09  -2.6951993556812551e-07 2.6811801204097176e-06 -6.1081813395046918e-09  -3.3122184462525404e-07 -5.4044943661018343e-06 -2.9430098581519358e-09  -3.2753030632383062e-07 2.7222084536746427e-06 -2.8241012411911698e-09  -3.5369146707728912e-07 2.7251254080760244e-06 4.9709464897240060e-19  1.7993017493378378e-07 -5.5028465467106599e-06 -7.9988787386359574e-09  3.5937047647136564e-08 2.7569840409812599e-06 -1.0599115398490261e-08  3.9831686021609956e-08 2.7354393441029709e-06 -1.0991487747177631e-08  2.7529175137239028e-07 2.7277044574715260e-06 -5.6012399609466729e-09  2.7143087255096627e-07 2.7494107693682381e-06 -5.3728868438667575e-09  1.7065334663642863e-07 2.7273848285231169e-06 -8.3670301614670976e-09  3.3684399707099998e-07 -5.4927524067949274e-06 -2.6896236894336590e-09  3.2753030632521546e-07 2.7222084536745572e-06 -2.8241012421212893e-09  3.5369146707880150e-07 2.7251254080759261e-06 -3.8832033530251716e-19  -3.3684399706941952e-07 -5.4927524067950883e-06 2.6896236894904280e-09  -2.7529175137087319e-07 2.7277044574716234e-06 5.6012399609598813e-09  -3.2753030632368598e-07 2.7222084536746419e-06 2.8241012421799952e-09  -1.3391631513635054e-07 -5.5230261699766941e-06 -1.3119057193737907e-08  -6.0213676623756393e-07 -5.5532755235580652e-06 -1.8084941722382676e-08  -8.9459601893622820e-07 2.7872455571509766e-06 -2.0043685239944945e-08  -9.0815787235598710e-07 2.7663486564599346e-06 -1.9881748064104199e-08  -3.5439888199257752e-07 2.7483237548546694e-06 -1.5947156749451185e-08  -3.5603352988498255e-07 2.7695988499827142e-06 -1.5526167231106090e-08  -6.1994771244891418e-07 2.7532363214125267e-06 -1.8494322729632010e-08  -1.4368785075059006e-07 2.7377312893818509e-06 -1.3617789666553418e-08  6.0213676623834341e-07 -5.5532755235582465e-06 1.8084941722308815e-08  9.0367553980283542e-07 2.8060103728101555e-06 1.8922574488266309e-08  8.9459601893667882e-07 2.7872455571511019e-06 2.0043685239876832e-08  9.0815787235652782e-07 2.7663486564600604e-06 1.9881748064021412e-08  3.5439888199360021e-07 2.7483237548547765e-06 1.5947156749346792e-08  3.5603352988600470e-07 2.7695988499827950e-06 1.5526167231010008e-08  3.4961727803430616e-07 2.7887802387147420e-06 1.4950425675600812e-08  6.1994771244969620e-07 2.7532363214126212e-06 1.8494322729529758e-08  1.3391631513758171e-07 -5.5230261699768609e-06 1.3119057193661442e-08  1.4368785075179409e-07 2.7377312893819352e-06 1.3617789666463571e-08  -3.9831686020254399e-08 2.7354393441030700e-06 1.0991487747114967e-08  -1.1486924742440496e-06 2.7858199807907621e-06 3.4525345752240359e-08  -1.2172674084905105e-06 2.7822900981068624e-06 2.4670363096891336e-08  -1.0920228646921001e-06 2.7999747613105304e-06 -9.4664889549364085e-09  -1.0798373121024182e-06 2.7807256378776236e-06 -1.0028573090956776e-08  -1.0941817303314824e-06 2.7608245144114891e-06 -9.9525410797456497e-09  -1.2411540517340990e-06 2.7633007703387974e-06 -1.4921607191397573e-08  -1.2217407165748711e-06 2.7834070590618683e-06 -1.5038773594035929e-08  -1.2012181992720499e-06 2.7616817621329269e-06 -1.2836518364932152e-08  -1.1191848301807198e-06 2.7649014841909406e-06 -1.7965638911086122e-08  -8.8972067233738853e-07 2.7800970028870068e-06 1.4805813119704280e-08  -3.2315020018663457e-07 2.7790222523273895e-06 4.9358487941882167e-09  -5.8068174682532883e-19 2.7976672772636383e-06 -8.3838557975085745e-21  -5.9982879364262227e-19 2.7785872785189239e-06 -1.7158668585055274e-20  -6.8145414591696723e-19 2.7588656296299804e-06 -2.2870207519787522e-20  -6.2687336589974405e-07 2.7593496831542001e-06 -4.9776782911426203e-09  -6.1966161277992713e-07 2.7791199352775814e-06 -5.0150646766940544e-09  -6.2580474942866249e-07 2.7982482973444463e-06 -4.7338542693617697e-09  -3.2005309499498140e-07 2.7586928988844797e-06 -2.5679531649948309e-09  -8.8041035018648704e-07 2.7596662191156763e-06 -7.7032605427516023e-09  3.2315020018531643e-07 2.7790222523273641e-06 -4.9358487941226453e-09  8.8972067233592147e-07 2.7800970028868861e-06 -1.4805813119631718e-08  1.0920228646909131e-06 2.7999747613104686e-06 9.4664889549124947e-09  1.0798373121011718e-06 2.7807256378774876e-06 1.0028573090915786e-08  1.0941817303302389e-06 2.7608245144112968e-06 9.9525410796920881e-09  6.2687336589827678e-07 2.7593496831539617e-06 4.9776782910949524e-09  6.1966161277850190e-07 2.7791199352775204e-06 5.0150646766581068e-09  6.2580474942720178e-07 2.7982482973444552e-06 4.7338542693431987e-09  8.8041035018502379e-07 2.7596662191154366e-06 7.7032605427028499e-09  3.2005309499363271e-07 2.7586928988843022e-06 2.5679531649490684e-09  1.2172674084896980e-06 2.7822900981067104e-06 -2.4670363096804446e-08  1.1486924742441042e-06 2.7858199807908379e-06 -3.4525345752129504e-08  1.1152636840700078e-06 2.8045089985844343e-06 1.7130801050378998e-08  1.2378539833973432e-06 2.8027532423572362e-06 1.4196554469628578e-08  1.2411540517337956e-06 2.7633007703387466e-06 1.4921607191333149e-08  1.2217407165744378e-06 2.7834070590617307e-06 1.5038773593986116e-08  1.1191848301808958e-06 2.7649014841910494e-06 1.7965638911022197e-08  1.2012181992712095e-06 2.7616817621327456e-06 1.2836518364877451e-08  3.9679993619799838e-08 1.0435321614544867e-06 2.0863050229970197e-07  -9.2278205562458587e-09 8.9722071912890364e-07 -2.2028193947024421e-07  -7.6373760550522667e-08 9.1834433286754845e-07 -1.5891031274415665e-07  -1.7203536930790503e-07 1.0250397880069745e-06 -1.0314788667231106e-07  1.2047828847457693e-07 9.7456664194929477e-07 -4.3683099109585553e-08  6.6463347700702360e-08 1.0048797797436394e-06 -7.7928508761287707e-08  1.5008589997143682e-07 8.3035247107997472e-07 1.7694614415100114e-07  3.8531255145417969e-08 7.3307660148787367e-07 -2.8687198797459302e-07  0.0000000000000000e+00 0.0000000000000000e+00 0.0000000000000000e+00  -9.9459345787448016e-08 1.2457233793442041e-06 -6.1442542820126028e-08  3.3380417494931399e-08 1.1586382860182305e-06 -8.3015965565591877e-08  -1.1679901474944001e-07 1.1036657605700578e-06 -8.6111754055504843e-08  -1.4594964898133525e-08 1.2486309004791537e-06 9.6772480412895576e-08  -9.7989407903618267e-08 1.3656602898299326e-06 -4.0562782021946565e-08  -1.1026045512950205e-07 1.4611991695579801e-06 -3.1302799560151244e-08  -1.9969745303581281e-07 -1.5247513725484830e-06 -1.4707335438868873e-07  -1.3868244337959272e-07 4.1161781543968198e-07 -2.2408560443909310e-07  -1.3275353215448936e-07 5.2731115741758813e-07 -1.6142036186836633e-07  -1.2343713028405630e-07 -7.2301613487737280e-07 -2.9390806394663648e-07  -2.0134883242682042e-07 8.2161456697364394e-07 -4.4071451411781421e-08  -1.8384459479087067e-07 6.7372905192023939e-07 -1.0793160072705143e-07  -2.0349488043621061e-07 8.2412805843935292e-07 -7.0704924367231517e-08  -1.3874688343810653e-07 -1.1716324556832285e-06 -8.2863561111207712e-08  -1.6210893204825237e-07 6.8047438720222386e-07 -3.4810911988945609e-08  -1.1161867781093110e-07 6.9743836272934684e-07 -1.9812225817021638e-08  3.3674612071689756e-08 6.8894793089586206e-07 5.9020447186874958e-08  -2.4758627210338280e-09 1.0576716774333199e-06 -2.9989552754780573e-08  5.1053392260940497e-08 1.0220672490382245e-06 -2.3937433041851131e-08  1.3085164235639962e-08 5.8529976891382513e-07 -2.5207252901286185e-08  0.0000000000000000e+00 0.0000000000000000e+00 0.0000000000000000e+00  -2.4291545313408180e-08 1.3009700448432576e-06 -3.8910337125847140e-08  0.0000000000000000e+00 0.0000000000000000e+00 0.0000000000000000e+00  9.1444502512027039e-08 6.1560433238537513e-07 -7.9019041288294193e-08  0.0000000000000000e+00 0.0000000000000000e+00 0.0000000000000000e+00  0.0000000000000000e+00 0.0000000000000000e+00 0.0000000000000000e+00  -5.3943949772778191e-08 -4.4997151461110159e-07 -1.2292420159289793e-07  -6.0126219339836162e-08 3.9040934356780447e-07 -7.5074340590477352e-08  -1.0436664464435144e-07 3.5194173465446880e-07 -1.1261846535976307e-07  -2.3170851380944103e-08 2.0738557676910171e-07 -4.6089624185253693e-08  0.0000000000000000e+00 0.0000000000000000e+00 0.0000000000000000e+00  -1.0028329504228486e-07 5.4361121826759825e-07 -5.0416367212443560e-08  0.0000000000000000e+00 0.0000000000000000e+00 0.0000000000000000e+00  -8.1426360281182976e-08 3.2283824603544313e-07 -1.3887514531874858e-07  0.0000000000000000e+00 0.0000000000000000e+00 0.0000000000000000e+00  0.0000000000000000e+00 0.0000000000000000e+00 0.0000000000000000e+00  0.0000000000000000e+00 0.0000000000000000e+00 0.0000000000000000e+00  0.0000000000000000e+00 0.0000000000000000e+00 0.0000000000000000e+00  0.0000000000000000e+00 0.0000000000000000e+00 0.0000000000000000e+00  0.0000000000000000e+00 0.0000000000000000e+00 0.0000000000000000e+00  0.0000000000000000e+00 0.0000000000000000e+00 0.0000000000000000e+00  0.0000000000000000e+00 0.0000000000000000e+00 0.0000000000000000e+00  0.0000000000000000e+00 0.0000000000000000e+00 0.0000000000000000e+00  0.0000000000000000e+00 0.0000000000000000e+00 0.0000000000000000e+00  0.0000000000000000e+00 0.0000000000000000e+00 0.0000000000000000e+00  0.0000000000000000e+00 0.0000000000000000e+00 0.0000000000000000e+00  0.0000000000000000e+00 0.0000000000000000e+00 0.0000000000000000e+00  0.0000000000000000e+00 0.0000000000000000e+00 0.0000000000000000e+00  0.0000000000000000e+00 0.0000000000000000e+00 0.0000000000000000e+00  0.0000000000000000e+00 0.0000000000000000e+00 0.0000000000000000e+00  0.0000000000000000e+00 0.0000000000000000e+00 0.0000000000000000e+00  0.0000000000000000e+00 0.0000000000000000e+00 0.0000000000000000e+00  -2.2057537045271819e-07 1.4396335070460342e-06 7.7098426011274846e-08  -2.2943920580603538e-07 1.3130918250128936e-06 -5.5224171104069734e-08  -3.6515812739551992e-07 1.3700988273231226e-06 -3.3390976286754167e-08  -2.3752833189281295e-07 1.1693821141118764e-06 1.2818343530374482e-07  -3.0330252420000679e-07 1.6082594236017064e-06 -2.0861044629721236e-08  -3.4113335919360287e-07 1.4980980258032092e-06 -3.3518435145994188e-08  -1.9605419727971925e-07 1.5539000879612808e-06 -3.2090952476336175e-08  -4.6250050933949871e-07 1.5385097459725192e-06 4.4190465197188946e-08  -4.0331684531664318e-07 1.6526331276296513e-06 -1.9937814652831563e-08  -5.0249719683151038e-07 1.6783784572901028e-06 -9.1078727858588763e-09  -1.7035447601607157e-07 -1.7083692484242103e-06 4.7738821012345049e-09  -2.1647243417667309e-07 9.1012241051037150e-07 -1.5087416330105777e-09  -2.3512713120850763e-07 1.0366689597406648e-06 2.7973252693119476e-08  -2.5217695299986372e-07 -1.9701590993108418e-06 -4.4137513788905597e-08  -1.1958973286467708e-07 9.4298470271098442e-07 3.6341051241084100e-08  -1.7695711427683364e-07 9.3441278730966838e-07 3.6073847507948443e-08  -1.2332967122369471e-07 8.0976081651993732e-07 1.1383634474421988e-08  -1.7899542919046996e-07 -2.1401099886467760e-06 5.3179417469696710e-08  -1.1817262253860360e-07 1.0313501899930941e-06 5.4419199049820142e-08  -1.0900255073723058e-07 1.1489915873766595e-06 6.3994926648116294e-08  -4.8829970833215386e-07 1.2983909261327576e-06 5.8714893849786230e-08  -6.0765069770427180e-07 1.4738083950750770e-06 -1.1078432701747243e-08  -4.9082643828722676e-07 1.4208045185981832e-06 -2.9217975029236893e-08  -5.8515157493753451e-07 1.3594679885157774e-06 -2.6860524920082679e-08  -5.0632059225506288e-07 1.3068388769958004e-06 -5.7448040206178588e-09  -5.7147679998589454e-07 1.5809406251365401e-06 -1.9649309556611633e-08  -3.4960976836782879e-07 1.1637387480736206e-06 -4.0181884995422067e-08  -3.7069938623317779e-07 1.2298163391539890e-06 -5.6662733935677414e-08  -4.2183755636272328e-07 1.2015643598128775e-06 -3.1722243509606930e-08  -2.5292819127216850e-07 1.0511771878918860e-06 -7.6571791345114431e-08  -3.2878207688186561e-07 -2.3265419637171506e-06 4.7529731525580876e-09  -2.6928574250789436e-07 1.2183378212044110e-06 5.8258248834336543e-08  -2.5180944010795192e-07 1.1058225857094258e-06 5.0179592259355479e-08  -3.7925681082741883e-07 1.2250498257249517e-06 3.1544650763242830e-08  -1.8418192146465859e-07 1.1418713205421991e-06 6.8610690450915321e-08  -2.9071364536237253e-07 1.0481466776068536e-06 9.3231982278901538e-10  -4.4704841088626819e-08 1.3660934146637517e-06 4.2340546153730527e-08  -7.3691876095179831e-08 1.5898965737229360e-06 -1.2918058035977106e-08  -9.0641505614256478e-08 1.5327348659784115e-06 -1.8683505844436085e-08  -3.1037730719213349e-08 1.3867301334891062e-06 -1.5327177560174267e-08  -1.4495919129678319e-08 1.0957700059055431e-06 -1.0726902697683315e-08  -2.0868702688721713e-08 1.4256380043613787e-06 1.1958769700278425e-08  -3.6648220263066949e-08 1.6168742155434319e-06 -5.4684752501841592e-09  -2.1579186227283796e-20 1.6330158457444501e-06 4.6769663508989689e-20  -3.8908426414091274e-09 1.0607946300116044e-06 -1.1503851035872319e-08  -1.2168427257229870e-09 6.5389723204099768e-07 2.1383611370477997e-08  -3.2531622723363930e-07 1.7372146791817128e-06 2.5654081524054307e-08  -2.4260752517880823e-07 1.7048029454913047e-06 -1.7198915069741179e-08  -1.7294476703372683e-07 1.7677022767436839e-06 -9.6425298861206916e-09  -1.6780813584115073e-07 1.6393333310022561e-06 3.9247323131269991e-08  -2.8025348808877423e-07 1.8250480057407084e-06 -4.7910168788507794e-09  -2.2572146925555862e-07 1.8104737186948686e-06 -9.7478180539313940e-09  -4.0053773939705544e-07 1.7684242608499567e-06 -1.1329314139161471e-08  -1.1680851070469505e-07 1.8450209042238964e-06 8.2751013487799563e-09  -1.4312417501549279e-07 1.8715824192318364e-06 -3.6546354270689395e-09  -6.4245019257801491e-20 1.8771388825229429e-06 8.3298979767518252e-20  -6.2744194748251037e-08 1.7414672236534831e-06 1.1896238836020234e-08  -1.1660377520389962e-07 1.7036561566930314e-06 -1.4291487022596212e-08  -4.2228346837011151e-20 1.8226144151546098e-06 6.6369153244130864e-20  -8.8012190842595231e-08 1.8131036832976031e-06 -5.2644051493729344e-09  -2.9483438191073155e-20 1.7543746673899403e-06 5.6989969994399009e-20  -4.8391885493905175e-20 1.8654353867059998e-06 7.5244941740023039e-20  -5.9480960869447321e-08 -1.0034376871491193e-06 -3.3358531712548031e-08  -4.3260829835532703e-08 6.3474483766495491e-07 -4.3103184803019932e-09  -7.7346691767261054e-08 6.1141496840540645e-07 -9.4818273145409431e-09  -3.9232590212955286e-08 4.8356942786111187e-07 -1.4516719544418520e-08  -2.1110124859602898e-08 3.3688785412428323e-07 -2.3300255383522518e-08  -2.1654341375001476e-08 -9.3533386036234246e-07 -7.4783498399842977e-09  -3.0405906065847148e-08 5.8235198655602941e-07 -5.6462483374739936e-10  -2.0386857126292100e-08 6.1581323280892444e-07 9.9861947622782354e-20  -3.9579891062633483e-08 3.1567473597596903e-07 -3.7512428828737435e-08  -1.7160185742968639e-08 -3.5520898249490650e-07 -3.5643466660124950e-08  -6.3468951233979317e-08 -2.0145666814270561e-06 4.4630024770713602e-08  -7.6239969334121933e-08 8.6715876388740079e-07 3.1301418257293336e-08  -3.7231823896780706e-08 8.8883990099726553e-07 2.2717744333021406e-08  -7.6153326035138313e-08 -1.5515754500559954e-06 1.1960642491885618e-08  -9.3199478356632932e-09 1.1062640429717066e-06 3.8233040897958509e-08  -2.8968590630436909e-08 9.8616898835526629e-07 3.2412584991293319e-08  -5.4499558917759579e-08 1.0865085494158456e-06 5.4456043019638305e-08  -1.8240928929381277e-09 -1.9528752392524489e-06 1.6654845487643352e-08  1.2397723184780413e-08 1.0593855008126141e-06 2.0073727568662551e-08  2.4581946310481079e-08 1.0919710477622115e-06 1.2622331994620759e-19  -2.4265157812853811e-08 -1.4799281832235960e-06 5.6577793008543850e-09  -4.8482531016889007e-08 7.5395944730868545e-07 1.0566108203163291e-08  -8.5517309757417040e-09 8.7136602064141582e-07 1.1783777850318138e-19  -2.0075716727334102e-08 8.3629875041868199e-07 1.2056564688689591e-08  -2.2171389708796233e-08 7.3633855649842483e-07 1.1088531998587449e-19  1.9987329279198130e-09 9.7120670505063244e-07 1.2377184084570462e-19  0.0000000000000000e+00 0.0000000000000000e+00 0.0000000000000000e+00  0.0000000000000000e+00 0.0000000000000000e+00 0.0000000000000000e+00  0.0000000000000000e+00 0.0000000000000000e+00 0.0000000000000000e+00  0.0000000000000000e+00 0.0000000000000000e+00 0.0000000000000000e+00  0.0000000000000000e+00 0.0000000000000000e+00 0.0000000000000000e+00  0.0000000000000000e+00 0.0000000000000000e+00 0.0000000000000000e+00  0.0000000000000000e+00 0.0000000000000000e+00 0.0000000000000000e+00  0.0000000000000000e+00 0.0000000000000000e+00 0.0000000000000000e+00  0.0000000000000000e+00 0.0000000000000000e+00 0.0000000000000000e+00  0.0000000000000000e+00 0.0000000000000000e+00 0.0000000000000000e+00  -5.0772640379386300e-09 -3.2263571071431224e-07 -6.7132040028428808e-09  -9.7985821569771069e-09 3.2239723526437280e-07 6.4791674165721412e-20  -1.3589652581633467e-08 2.9934224084399941e-07 -7.5624037655146895e-09  -2.1962048673769279e-09 1.6143709308212586e-07 3.5115272960637944e-20  0.0000000000000000e+00 0.0000000000000000e+00 0.0000000000000000e+00  -2.0032424182946500e-08 4.6622862632569402e-07 8.4995279379763794e-20  0.0000000000000000e+00 0.0000000000000000e+00 0.0000000000000000e+00  -6.0783079370442022e-09 1.7047841954246781e-07 -1.1731790192596285e-08  0.0000000000000000e+00 0.000