<?xml version="1.0"?>
<VTKFile type="UnstructuredGrid"  version="0.1"  >
<UnstructuredGrid>
<Piece  NumberOfPoints="5634" NumberOfCells="11264">
<Points>
<DataArray  type="Float64"  NumberOfComponents="3"  format="ascii">0 0 0  0.5 0 0  0.5 0.5 0  0.5 0 0.5  0 0.5 0  0 0.5 0.5  0 0 0.5  1 0 0  1 0.5 0  1 0 0.5  1.5 0 0  1.5 0.5 0  1.5 0 0.5  2 0 0  2 0.5 0  2 0 0.5  2.5 0 0  2.5 0.5 0  2.5 0 0.5  3 0 0  3 0.5 0  3 0 0.5  3.5 0 0  3.5 0.5 0  3.5 0 0.5  4 0 0  4 0.5 0  4 0 0.5  4.5 0 0  4.5 0.5 0  4.5 0 0.5  5 0 0  5 0.5 0  5 0 0.5  5.5 0 0  5.5 0.5 0  5.5 0 0.5  6 0 0  6 0.5 0  6 0 0.5  6.5 0 0  6.5 0.5 0  6.5 0 0.5  7 0 0  7 0.5 0  7 0 0.5  7.5 0 0  7.5 0.5 0  7.5 0 0.5  8 0 0  8 0.5 0  8 0 0.5  8.5 0 0  8.5 0.5 0  8.5 0 0.5  9 0 0  9 0.5 0  9 0 0.5  9.5 0 0  9.5 0.5 0  9.5 0 0.5  10 0 0  10 0.5 0  10 0 0.5  10 0.5 0.5  0.5 1 0  0 1 0  0 1 0.5  1 1 0  1.5 1 0  2 1 0  2.5 1 0  3 1 0  3.5 1 0  4 1 0  4.5 1 0  5 1 0  5.5 1 0  6 1 0  6.5 1 0  7 1 0  7.5 1 0  8 1 0  8.5 1 0  9 1 0  9.5 1 0  10 1 0  10 1 0.5  0.5 1.5 0  0 1.5 0  0 1.5 0.5  1 1.5 0  1.5 1.5 0  2 1.5 0  2.5 1.5 0  3 1.5 0  3.5 1.5 0  4 1.5 0  4.5 1.5 0  5 1.5 0  5.5 1.5 0  6 1.5 0  6.5 1.5 0  7 1.5 0  7.5 1.5 0  8 1.5 0  8.5 1.5 0  9 1.5 0  9.5 1.5 0  10 1.5 0  10 1.5 0.5  0.5 2 0  0 2 0  0 2 0.5  1 2 0  1.5 2 0  2 2 0  2.5 2 0  3 2 0  3.5 2 0  4 2 0  4.5 2 0  5 2 0  5.5 2 0  6 2 0  6.5 2 0  7 2 0  7.5 2 0  8 2 0  8.5 2 0  9 2 0  9.5 2 0  10 2 0  10 2 0.5  0.5 2 0.5  1 2 0.5  1.5 2 0.5  2 2 0.5  2.5 2 0.5  3 2 0.5  3.5 2 0.5  4 2 0.5  4.5 2 0.5  5 2 0.5  5.5 2 0.5  6 2 0.5  6.5 2 0.5  7 2 0.5  7.5 2 0.5  8 2 0.5  8.5 2 0.5  9 2 0.5  9.5 2 0.5  0.5 0 1  0 0.5 1  0 0 1  1 0 1  1.5 0 1  2 0 1  2.5 0 1  3 0 1  3.5 0 1  4 0 1  4.5 0 1  5 0 1  5.5 0 1  6 0 1  6.5 0 1  7 0 1  7.5 0 1  8 0 1  8.5 0 1  9 0 1  9.5 0 1  10 0 1  10 0.5 1  0 1 1  10 1 1  0 1.5 1  10 1.5 1  0 2 1  10 2 1  0.5 2 1  1 2 1  1.5 2 1  2 2 1  2.5 2 1  3 2 1  3.5 2 1  4 2 1  4.5 2 1  5 2 1  5.5 2 1  6 2 1  6.5 2 1  7 2 1  7.5 2 1  8 2 1  8.5 2 1  9 2 1  9.5 2 1  0.5 0 1.5  0 0.5 1.5  0 0 1.5  1 0 1.5  1.5 0 1.5  2 0 1.5  2.5 0 1.5  3 0 1.5  3.5 0 1.5  4 0 1.5  4.5 0 1.5  5 0 1.5  5.5 0 1.5  6 0 1.5  6.5 0 1.5  7 0 1.5  7.5 0 1.5  8 0 1.5  8.5 0 1.5  9 0 1.5  9.5 0 1.5  10 0 1.5  10 0.5 1.5  0 1 1.5  10 1 1.5  0 1.5 1.5  10 1.5 1.5  0 2 1.5  10 2 1.5  0.5 2 1.5  1 2 1.5  1.5 2 1.5  2 2 1.5  2.5 2 1.5  3 2 1.5  3.5 2 1.5  4 2 1.5  4.5 2 1.5  5 2 1.5  5.5 2 1.5  6 2 1.5  6.5 2 1.5  7 2 1.5  7.5 2 1.5  8 2 1.5  8.5 2 1.5  9 2 1.5  9.5 2 1.5  0.5 0 2  0 0.5 2  0 0 2  1 0 2  1.5 0 2  2 0 2  2.5 0 2  3 0 2  3.5 0 2  4 0 2  4.5 0 2  5 0 2  5.5 0 2  6 0 2  6.5 0 2  7 0 2  7.5 0 2  8 0 2  8.5 0 2  9 0 2  9.5 0 2  10 0 2  10 0.5 2  0 1 2  10 1 2  0 1.5 2  10 1.5 2  0 2 2  10 2 2  0.5 2 2  1 2 2  1.5 2 2  2 2 2  2.5 2 2  3 2 2  3.5 2 2  4 2 2  4.5 2 2  5 2 2  5.5 2 2  6 2 2  6.5 2 2  7 2 2  7.5 2 2  8 2 2  8.5 2 2  9 2 2  9.5 2 2  0.5 0.5 2  1 0.5 2  1.5 0.5 2  2 0.5 2  2.5 0.5 2  3 0.5 2  3.5 0.5 2  4 0.5 2  4.5 0.5 2  5 0.5 2  5.5 0.5 2  6 0.5 2  6.5 0.5 2  7 0.5 2  7.5 0.5 2  8 0.5 2  8.5 0.5 2  9 0.5 2  9.5 0.5 2  0.5 1 2  1 1 2  1.5 1 2  2 1 2  2.5 1 2  3 1 2  3.5 1 2  4 1 2  4.5 1 2  5 1 2  5.5 1 2  6 1 2  6.5 1 2  7 1 2  7.5 1 2  8 1 2  8.5 1 2  9 1 2  9.5 1 2  0.5 1.5 2  1 1.5 2  1.5 1.5 2  2 1.5 2  2.5 1.5 2  3 1.5 2  3.5 1.5 2  4 1.5 2  4.5 1.5 2  5 1.5 2  5.5 1.5 2  6 1.5 2  6.5 1.5 2  7 1.5 2  7.5 1.5 2  8 1.5 2  8.5 1.5 2  9 1.5 2  9.5 1.5 2  0.25 0 0  0.25 0.25 0  0.25 0 0.25  0 0.25 0  0 0.25 0.25  0 0 0.25  0.5 0.25 0  0.5 0 0.25  0.75 0 0  0.75 0.25 0  0.75 0 0.25  0.25 0.5 0  0.75 0.5 0  0.5 0.75 0  0.75 0.75 0  0.25 0 0.5  0.75 0 0.5  0.5 0 0.75  0.75 0 0.75  0 0.5 0.25  0.25 0.75 0  0 0.75 0  0 0.75 0.25  0 0.25 0.5  0 0.75 0.5  0 0.5 0.75  0 0.75 0.75  0.25 0 0.75  0 0.25 0.75  0 0 0.75  1 0.25 0  1 0 0.25  1.25 0 0  1.25 0.25 0  1.25 0 0.25  1.25 0.5 0  1 0.75 0  1.25 0.75 0  1.25 0 0.5  1 0 0.75  1.25 0 0.75  1.5 0.25 0  1.5 0 0.25  1.75 0 0  1.75 0.25 0  1.75 0 0.25  1.75 0.5 0  1.5 0.75 0  1.75 0.75 0  1.75 0 0.5  1.5 0 0.75  1.75 0 0.75  2 0.25 0  2 0 0.25  2.25 0 0  2.25 0.25 0  2.25 0 0.25  2.25 0.5 0  2 0.75 0  2.25 0.75 0  2.25 0 0.5  2 0 0.75  2.25 0 0.75  2.5 0.25 0  2.5 0 0.25  2.75 0 0  2.75 0.25 0  2.75 0 0.25  2.75 0.5 0  2.5 0.75 0  2.75 0.75 0  2.75 0 0.5  2.5 0 0.75  2.75 0 0.75  3 0.25 0  3 0 0.25  3.25 0 0  3.25 0.25 0  3.25 0 0.25  3.25 0.5 0  3 0.75 0  3.25 0.75 0  3.25 0 0.5  3 0 0.75  3.25 0 0.75  3.5 0.25 0  3.5 0 0.25  3.75 0 0  3.75 0.25 0  3.75 0 0.25  3.75 0.5 0  3.5 0.75 0  3.75 0.75 0  3.75 0 0.5  3.5 0 0.75  3.75 0 0.75  4 0.25 0  4 0 0.25  4.25 0 0  4.25 0.25 0  4.25 0 0.25  4.25 0.5 0  4 0.75 0  4.25 0.75 0  4.25 0 0.5  4 0 0.75  4.25 0 0.75  4.5 0.25 0  4.5 0 0.25  4.75 0 0  4.75 0.25 0  4.75 0 0.25  4.75 0.5 0  4.5 0.75 0  4.75 0.75 0  4.75 0 0.5  4.5 0 0.75  4.75 0 0.75  5 0.25 0  5 0 0.25  5.25 0 0  5.25 0.25 0  5.25 0 0.25  5.25 0.5 0  5 0.75 0  5.25 0.75 0  5.25 0 0.5  5 0 0.75  5.25 0 0.75  5.5 0.25 0  5.5 0 0.25  5.75 0 0  5.75 0.25 0  5.75 0 0.25  5.75 0.5 0  5.5 0.75 0  5.75 0.75 0  5.75 0 0.5  5.5 0 0.75  5.75 0 0.75  6 0.25 0  6 0 0.25  6.25 0 0  6.25 0.25 0  6.25 0 0.25  6.25 0.5 0  6 0.75 0  6.25 0.75 0  6.25 0 0.5  6 0 0.75  6.25 0 0.75  6.5 0.25 0  6.5 0 0.25  6.75 0 0  6.75 0.25 0  6.75 0 0.25  6.75 0.5 0  6.5 0.75 0  6.75 0.75 0  6.75 0 0.5  6.5 0 0.75  6.75 0 0.75  7 0.25 0  7 0 0.25  7.25 0 0  7.25 0.25 0  7.25 0 0.25  7.25 0.5 0  7 0.75 0  7.25 0.75 0  7.25 0 0.5  7 0 0.75  7.25 0 0.75  7.5 0.25 0  7.5 0 0.25  7.75 0 0  7.75 0.25 0  7.75 0 0.25  7.75 0.5 0  7.5 0.75 0  7.75 0.75 0  7.75 0 0.5  7.5 0 0.75  7.75 0 0.75  8 0.25 0  8 0 0.25  8.25 0 0  8.25 0.25 0  8.25 0 0.25  8.25 0.5 0  8 0.75 0  8.25 0.75 0  8.25 0 0.5  8 0 0.75  8.25 0 0.75  8.5 0.25 0  8.5 0 0.25  8.75 0 0  8.75 0.25 0  8.75 0 0.25  8.75 0.5 0  8.5 0.75 0  8.75 0.75 0  8.75 0 0.5  8.5 0 0.75  8.75 0 0.75  9 0.25 0  9 0 0.25  9.25 0 0  9.25 0.25 0  9.25 0 0.25  9.25 0.5 0  9 0.75 0  9.25 0.75 0  9.25 0 0.5  9 0 0.75  9.25 0 0.75  9.5 0.25 0  9.5 0 0.25  9.75 0 0  9.75 0.25 0  9.75 0 0.25  9.75 0.5 0  9.5 0.75 0  9.75 0.75 0  9.75 0 0.5  9.5 0 0.75  9.75 0 0.75  10 0.25 0  10 0 0.25  10 0.25 0.25  10 0.5 0.25  10 0.75 0  10 0.75 0.25  10 0.25 0.5  10 0 0.75  10 0.25 0.75  10 0.75 0.5  10 0.5 0.75  10 0.75 0.75  0.25 1 0  0.75 1 0  0.5 1.25 0  0.75 1.25 0  0 1 0.25  0.25 1.25 0  0 1.25 0  0 1.25 0.25  0 1.25 0.5  0 1 0.75  0 1.25 0.75  1.25 1 0  1 1.25 0  1.25 1.25 0  1.75 1 0  1.5 1.25 0  1.75 1.25 0  2.25 1 0  2 1.25 0  2.25 1.25 0  2.75 1 0  2.5 1.25 0  2.75 1.25 0  3.25 1 0  3 1.25 0  3.25 1.25 0  3.75 1 0  3.5 1.25 0  3.75 1.25 0  4.25 1 0  4 1.25 0  4.25 1.25 0  4.75 1 0  4.5 1.25 0  4.75 1.25 0  5.25 1 0  5 1.25 0  5.25 1.25 0  5.75 1 0  5.5 1.25 0  5.75 1.25 0  6.25 1 0  6 1.25 0  6.25 1.25 0  6.75 1 0  6.5 1.25 0  6.75 1.25 0  7.25 1 0  7 1.25 0  7.25 1.25 0  7.75 1 0  7.5 1.25 0  7.75 1.25 0  8.25 1 0  8 1.25 0  8.25 1.25 0  8.75 1 0  8.5 1.25 0  8.75 1.25 0  9.25 1 0  9 1.25 0  9.25 1.25 0  9.75 1 0  9.5 1.25 0  9.75 1.25 0  10 1 0.25  10 1.25 0  10 1.25 0.25  10 1.25 0.5  10 1 0.75  10 1.25 0.75  0.25 1.5 0  0.75 1.5 0  0.5 1.75 0  0.75 1.75 0  0 1.5 0.25  0.25 1.75 0  0 1.75 0  0 1.75 0.25  0 1.75 0.5  0 1.5 0.75  0 1.75 0.75  1.25 1.5 0  1 1.75 0  1.25 1.75 0  1.75 1.5 0  1.5 1.75 0  1.75 1.75 0  2.25 1.5 0  2 1.75 0  2.25 1.75 0  2.75 1.5 0  2.5 1.75 0  2.75 1.75 0  3.25 1.5 0  3 1.75 0  3.25 1.75 0  3.75 1.5 0  3.5 1.75 0  3.75 1.75 0  4.25 1.5 0  4 1.75 0  4.25 1.75 0  4.75 1.5 0  4.5 1.75 0  4.75 1.75 0  5.25 1.5 0  5 1.75 0  5.25 1.75 0  5.75 1.5 0  5.5 1.75 0  5.75 1.75 0  6.25 1.5 0  6 1.75 0  6.25 1.75 0  6.75 1.5 0  6.5 1.75 0  6.75 1.75 0  7.25 1.5 0  7 1.75 0  7.25 1.75 0  7.75 1.5 0  7.5 1.75 0  7.75 1.75 0  8.25 1.5 0  8 1.75 0  8.25 1.75 0  8.75 1.5 0  8.5 1.75 0  8.75 1.75 0  9.25 1.5 0  9 1.75 0  9.25 1.75 0  9.75 1.5 0  9.5 1.75 0  9.75 1.75 0  10 1.5 0.25  10 1.75 0  10 1.75 0.25  10 1.75 0.5  10 1.5 0.75  10 1.75 0.75  0.25 2 0  0.75 2 0  0.5 2 0.25  0.75 2 0.25  0 2 0.25  0.25 2 0.25  0.25 2 0.5  0 2 0.75  0.25 2 0.75  1.25 2 0  1 2 0.25  1.25 2 0.25  1.75 2 0  1.5 2 0.25  1.75 2 0.25  2.25 2 0  2 2 0.25  2.25 2 0.25  2.75 2 0  2.5 2 0.25  2.75 2 0.25  3.25 2 0  3 2 0.25  3.25 2 0.25  3.75 2 0  3.5 2 0.25  3.75 2 0.25  4.25 2 0  4 2 0.25  4.25 2 0.25  4.75 2 0  4.5 2 0.25  4.75 2 0.25  5.25 2 0  5 2 0.25  5.25 2 0.25  5.75 2 0  5.5 2 0.25  5.75 2 0.25  6.25 2 0  6 2 0.25  6.25 2 0.25  6.75 2 0  6.5 2 0.25  6.75 2 0.25  7.25 2 0  7 2 0.25  7.25 2 0.25  7.75 2 0  7.5 2 0.25  7.75 2 0.25  8.25 2 0  8 2 0.25  8.25 2 0.25  8.75 2 0  8.5 2 0.25  8.75 2 0.25  9.25 2 0  9 2 0.25  9.25 2 0.25  9.75 2 0  9.75 2 0.25  9.5 2 0.25  10 2 0.25  9.75 2 0.5  10 2 0.75  0.75 2 0.5  0.5 2 0.75  0.75 2 0.75  1.25 2 0.5  1 2 0.75  1.25 2 0.75  1.75 2 0.5  1.5 2 0.75  1.75 2 0.75  2.25 2 0.5  2 2 0.75  2.25 2 0.75  2.75 2 0.5  2.5 2 0.75  2.75 2 0.75  3.25 2 0.5  3 2 0.75  3.25 2 0.75  3.75 2 0.5  3.5 2 0.75  3.75 2 0.75  4.25 2 0.5  4 2 0.75  4.25 2 0.75  4.75 2 0.5  4.5 2 0.75  4.75 2 0.75  5.25 2 0.5  5 2 0.75  5.25 2 0.75  5.75 2 0.5  5.5 2 0.75  5.75 2 0.75  6.25 2 0.5  6 2 0.75  6.25 2 0.75  6.75 2 0.5  6.5 2 0.75  6.75 2 0.75  7.25 2 0.5  7 2 0.75  7.25 2 0.75  7.75 2 0.5  7.5 2 0.75  7.75 2 0.75  8.25 2 0.5  8 2 0.75  8.25 2 0.75  8.75 2 0.5  8.5 2 0.75  8.75 2 0.75  9.25 2 0.5  9 2 0.75  9.25 2 0.75  9.75 2 0.75  9.5 2 0.75  0.25 0 1  0.75 0 1  0.5 0 1.25  0.75 0 1.25  0 0.25 1  0 0.75 1  0 0.5 1.25  0 0.75 1.25  0.25 0 1.25  0 0.25 1.25  0 0 1.25  1.25 0 1  1 0 1.25  1.25 0 1.25  1.75 0 1  1.5 0 1.25  1.75 0 1.25  2.25 0 1  2 0 1.25  2.25 0 1.25  2.75 0 1  2.5 0 1.25  2.75 0 1.25  3.25 0 1  3 0 1.25  3.25 0 1.25  3.75 0 1  3.5 0 1.25  3.75 0 1.25  4.25 0 1  4 0 1.25  4.25 0 1.25  4.75 0 1  4.5 0 1.25  4.75 0 1.25  5.25 0 1  5 0 1.25  5.25 0 1.25  5.75 0 1  5.5 0 1.25  5.75 0 1.25  6.25 0 1  6 0 1.25  6.25 0 1.25  6.75 0 1  6.5 0 1.25  6.75 0 1.25  7.25 0 1  7 0 1.25  7.25 0 1.25  7.75 0 1  7.5 0 1.25  7.75 0 1.25  8.25 0 1  8 0 1.25  8.25
[...]
<PointData  Vectors="u"> 
<DataArray  type="Float64"  Name="u"  NumberOfComponents="3" format="ascii">0.0000000000000000e+00 0.0000000000000000e+00 0.0000000000000000e+00  -4.6175571480366993e-07 -1.1873652741406555e-07 -4.2469382728649231e-07  -3.4738695497511434e-07 -4.1751639189782255e-08 -4.7786306640475699e-07  -1.9206463246270441e-07 -2.6167278930008547e-08 -3.5431088991401017e-07  0.0000000000000000e+00 0.0000000000000000e+00 0.0000000000000000e+00  0.0000000000000000e+00 0.0000000000000000e+00 0.0000000000000000e+00  0.0000000000000000e+00 0.0000000000000000e+00 0.0000000000000000e+00  -8.1668525194079274e-07 -1.4982853127598737e-07 -9.8871635533127616e-07  -6.9352733713439699e-07 -6.9556407605976355e-08 -1.2788962244970883e-06  -3.7934970467073453e-07 -9.9142639769059975e-09 -9.1935247503432698e-07  -1.1304926362274580e-06 -1.5063560788339020e-07 -1.7010917221910120e-06  -1.0129774204815104e-06 -7.5191563404270805e-08 -2.1468441588596739e-06  -5.4349562579085801e-07 2.5641431415871653e-08 -1.6398292951485681e-06  -1.4108213152277439e-06 -1.4031656272454835e-07 -2.5501302908621842e-06  -1.3010634562138150e-06 -7.1575306443606959e-08 -3.0775091261302589e-06  -6.8696905133014275e-07 5.6046478526089270e-08 -2.4960644429435021e-06  -1.6600857537580586e-06 -1.2657288186504489e-07 -3.5198618876754862e-06  -1.5578583985132480e-06 -6.5056200699153496e-08 -4.0858318626040900e-06  -8.1324927699831147e-07 7.7813707812939428e-08 -3.4719752452287932e-06  -1.8799426170767271e-06 -1.1239331550076537e-07 -4.5948320700027377e-06  -1.7847306952993763e-06 -5.7998155771939288e-08 -5.1772498433597491e-06  -9.2431119716678804e-07 9.3040040093817175e-08 -4.5524930412793266e-06  -2.0720285642556672e-06 -9.8808492938817932e-08 -5.7605796111415555e-06  -1.9834697194547094e-06 -5.1176122517490465e-08 -6.3486524349158280e-06  -1.0213736922170568e-06 1.0412851175244894e-07 -5.7233540494663380e-06  -2.2380697593453479e-06 -8.6119283281421865e-08 -7.0035997086758666e-06  -2.1559696405871236e-06 -4.4804843405050179e-08 -7.5922394907790380e-06  -1.1054090733151907e-06 1.1272014737494061e-07 -6.9711208595414103e-06  -2.3798632848851453e-06 -7.4388818736119495e-08 -8.3113109770212358e-06  -2.3041323608713646e-06 -3.8924615223520122e-08 -8.8981832915596985e-06  -1.1773345794344573e-06 1.1975771686204198e-07 -8.2832284777488360e-06  -2.4992459841380690e-06 -6.3616495175720983e-08 -9.6720512592547651e-06  -2.4298481250981118e-06 -3.3531610344946220e-08 -1.0256082726867392e-05  -1.2380659229295091e-06 1.2572209489533099e-07 -9.6480160036988457e-06  -2.5980735492596095e-06 -5.3789930507977714e-08 -1.1075082510518590e-05  -2.5349968672008824e-06 -2.8615128932253210e-08 -1.1655668886081705e-05  -1.2885266943284344e-06 1.3080712501809052e-07 -1.1054743215234818e-05  -2.6782099877296113e-06 -4.4894440466529475e-08 -1.2510595929885519e-05  -2.6214517805493985e-06 -2.4163534718176476e-08 -1.3087077324605722e-05  -1.3296480418113640e-06 1.3500177691701647e-07 -1.2493597901447654e-05  -2.7415247532787609e-06 -3.6907771081772189e-08 -1.3969716285371937e-05  -2.6910799698826126e-06 -2.0159483314738002e-08 -1.4540824993002400e-05  -1.3623696779202438e-06 1.3808412273277593e-07 -1.3955698738730275e-05  -2.7898977887296636e-06 -2.9788165991385984e-08 -1.5444507556812856e-05  -2.7457377487372430e-06 -1.6569980728397611e-08 -1.6007483714725529e-05  -1.3876468607665784e-06 1.3951900708107740e-07 -1.5433097396416388e-05  -2.8252382166508358e-06 -2.3462008916602673e-08 -1.6927983886212078e-05  -2.7872568881122804e-06 -1.3335443325816117e-08 -1.7476900175900403e-05  -1.4064677103234611e-06 1.3822869844884591e-07 -1.6918784975098519e-05  -2.8495294992907339e-06 -1.7836407104585738e-08 -1.8414131087863106e-05  -2.8174165299610961e-06 -1.0377133966633713e-08 -1.8936674186514436e-05  -1.4198845783645292e-06 1.3220260521533955e-07 -1.8406714591974748e-05  -2.8649159219776233e-06 -1.2927105090753912e-08 -1.9897940530173359e-05  -2.8378998845600827e-06 -7.6955702285371672e-09 -2.0369686090978495e-05  -1.4290522486509851e-06 1.1800478401408754e-07 -1.9891870493057587e-05  -2.8738083860214457e-06 -9.3652226741152750e-09 -2.1375433904874360e-05  -2.8502674152281163e-06 -5.7670125824948808e-09 -2.1751945913960304e-05  -1.4352213384322447e-06 9.0627059132419093e-08 -2.1370459954644918e-05  -2.8787446967150089e-06 -9.9913355881588775e-09 -2.2843555647312702e-05  -2.8561560771903682e-06 -6.6080588152924553e-09 -2.3059992030083772e-05  -1.4395061231186189e-06 4.5581829018778462e-08 -2.2840395750490519e-05  -2.8802670313566781e-06 -2.3353300072238934e-08 -2.4297694547152845e-05  -2.8587949435416471e-06 -1.5013197952306493e-08 -2.4330608591055039e-05  -1.4415895595604915e-06 -1.9354044537536260e-09 -2.4302921758751811e-05  -1.4563570443801253e-06 -1.8960748550586441e-09 -2.4328522595320732e-05  -3.2389456366364127e-07 3.6509597917519470e-20 -5.1054991488223440e-07  0.0000000000000000e+00 0.0000000000000000e+00 0.0000000000000000e+00  0.0000000000000000e+00 0.0000000000000000e+00 0.0000000000000000e+00  -6.5635114141123839e-07 4.3105841214407045e-22 -1.4150412380163387e-06  -9.7415216931698551e-07 -9.0046827883056411e-20 -2.3649571887787684e-06  -1.2642326088049962e-06 -2.2343723890971015e-19 -3.3415582934521035e-06  -1.5235694831481614e-06 -3.9062475439245275e-19 -4.3724707575217670e-06  -1.7528750773012982e-06 -5.8254023840395383e-19 -5.4740966612286535e-06  -1.9538948535232278e-06 -7.9184753635187562e-19 -6.6496205236869749e-06  -2.1285800158096139e-06 -1.0099380227145091e-18 -7.8944404336853917e-06  -2.2788803804369160e-06 -1.2290210709869959e-18 -9.2002665935470817e-06  -2.4067132665325921e-06 -1.4411326250344597e-18 -1.0557396949375807e-05  -2.5139714242566511e-06 -1.6345617287319009e-18 -1.1955821324661909e-05  -2.6025324395699525e-06 -1.8041133123555988e-18 -1.3385645524702382e-05  -2.6742604847600141e-06 -1.9405705365274797e-18 -1.4837053456732534e-05  -2.7309959298266717e-06 -2.0411252196256171e-18 -1.6299793772187273e-05  -2.7745254109704896e-06 -2.0980921536717985e-18 -1.7761954427643084e-05  -2.8065239263831548e-06 -2.1017127697430300e-18 -1.9207583639191305e-05  -2.8284824890788766e-06 -2.0522293613047910e-18 -2.0612902125841143e-05  -2.8417397921744102e-06 -1.9576755419352179e-18 -2.1943342963431099e-05  -2.8480080235021424e-06 -1.8263235749000901e-18 -2.3166021684640864e-05  -2.8512249918073215e-06 -1.6900503919720170e-18 -2.4341566768071145e-05  -1.4693460035139289e-06 -2.3703095573791738e-18 -2.4338664073097811e-05  -3.4738695497499205e-07 4.1751639189844366e-08 -4.7786306640458790e-07  0.0000000000000000e+00 0.0000000000000000e+00 0.0000000000000000e+00  0.0000000000000000e+00 0.0000000000000000e+00 0.0000000000000000e+00  -6.9352733713415897e-07 6.9556407605963822e-08 -1.2788962244966457e-06  -1.0129774204811758e-06 7.5191563404079296e-08 -2.1468441588589221e-06  -1.3010634562134037e-06 7.1575306443151203e-08 -3.0775091261291717e-06  -1.5578583985127796e-06 6.5056200698366219e-08 -4.0858318626026695e-06  -1.7847306952988662e-06 5.7998155770769807e-08 -5.1772498433579500e-06  -1.9834697194541741e-06 5.1176122515905223e-08 -6.3486524349136952e-06  -2.1559696405865790e-06 4.4804843403032897e-08 -7.5922394907765799e-06  -2.3041323608708343e-06 3.8924615221066023e-08 -8.8981832915570540e-06  -2.4298481250976112e-06 3.3531610342071781e-08 -1.0256082726864589e-05  -2.5349968672004288e-06 2.8615128928990902e-08 -1.1655668886078806e-05  -2.6214517805490118e-06 2.4163534714578555e-08 -1.3087077324602576e-05  -2.6910799698823017e-06 2.0159483310865542e-08 -1.4540824992999025e-05  -2.7457377487370139e-06 1.6569980724325202e-08 -1.6007483714722337e-05  -2.7872568881121453e-06 1.3335443321632946e-08 -1.7476900175897412e-05  -2.8174165299610614e-06 1.0377133962441185e-08 -1.8936674186511292e-05  -2.8378998845601386e-06 7.6955702244433345e-09 -2.0369686090975419e-05  -2.8502674152282492e-06 5.7670125785882565e-09 -2.1751945913958061e-05  -2.8561560771905503e-06 6.6080588116430130e-09 -2.3059992030081919e-05  -2.8587949435418449e-06 1.5013197948936401e-08 -2.4330608591053603e-05  -1.4563570443799732e-06 1.8960748503357013e-09 -2.4328522595319353e-05  -4.6175571480337448e-07 1.1873652741408269e-07 -4.2469382728611242e-07  0.0000000000000000e+00 0.0000000000000000e+00 0.0000000000000000e+00  0.0000000000000000e+00 0.0000000000000000e+00 0.0000000000000000e+00  -8.1668525194026874e-07 1.4982853127593393e-07 -9.8871635533047402e-07  -1.1304926362267433e-06 1.5063560788316597e-07 -1.7010917221897332e-06  -1.4108213152268808e-06 1.4031656272406682e-07 -2.5501302908603779e-06  -1.6600857537570843e-06 1.2657288186423880e-07 -3.5198618876731315e-06  -1.8799426170756730e-06 1.1239331549958360e-07 -4.5948320699998366e-06  -2.0720285642545678e-06 9.8808492937225947e-08 -5.7605796111381208e-06  -2.2380697593442392e-06 8.6119283279405953e-08 -7.0035997086719279e-06  -2.3798632848840535e-06 7.4388818733672788e-08 -8.3113109770167991e-06  -2.4992459841370339e-06 6.3616495172860195e-08 -9.6720512592498896e-06  -2.5980735492586756e-06 5.3789930504739282e-08 -1.1075082510513377e-05  -2.6782099877288159e-06 4.4894440462957748e-08 -1.2510595929880059e-05  -2.7415247532781104e-06 3.6907771077928863e-08 -1.3969716285366298e-05  -2.7898977887291910e-06 2.9788165987349201e-08 -1.5444507556807171e-05  -2.8252382166505651e-06 2.3462008912456337e-08 -1.6927983886206434e-05  -2.8495294992907017e-06 1.7836407100427623e-08 -1.8414131087857678e-05  -2.8649159219777889e-06 1.2927105086689062e-08 -1.9897940530168378e-05  -2.8738083860217633e-06 9.3652226702335513e-09 -2.1375433904869935e-05  -2.8787446967154502e-06 9.9913355845232632e-09 -2.2843555647309032e-05  -2.8802670313571583e-06 2.3353300068902130e-08 -2.4297694547150046e-05  -1.4415895595602477e-06 1.9354044490369197e-09 -2.4302921758748992e-05  -1.9206463246254612e-07 2.6167278929952051e-08 -3.5431088991367580e-07  -3.7934970467042102e-07 9.9142639767262644e-09 -9.1935247503356846e-07  -5.4349562579041025e-07 -2.5641431416243987e-08 -1.6398292951473249e-06  -6.8696905132958117e-07 -5.6046478526719303e-08 -2.4960644429417262e-06  -8.1324927699765746e-07 -7.7813707813882374e-08 -3.4719752452264655e-06  -9.2431119716605789e-07 -9.3040040095123220e-08 -4.5524930412764407e-06  -1.0213736922162718e-06 -1.0412851175416565e-07 -5.7233540494629050e-06  -1.1054090733143761e-06 -1.1272014737710180e-07 -6.9711208595374555e-06  -1.1773345794336227e-06 -1.1975771686467509e-07 -8.2832284777443942e-06  -1.2380659229286758e-06 -1.2572209489844617e-07 -9.6480160036939617e-06  -1.2885266943276307e-06 -1.3080712502164634e-07 -1.1054743215229568e-05  -1.3296480418106159e-06 -1.3500177692093203e-07 -1.2493597901442141e-05  -1.3623696779195706e-06 -1.3808412273702147e-07 -1.3955698738724596e-05  -1.3876468607659814e-06 -1.3951900708564781e-07 -1.5433097396410652e-05  -1.4064677103229647e-06 -1.3822869845364226e-07 -1.6918784975092817e-05  -1.4198845783641252e-06 -1.3220260522015946e-07 -1.8406714591969307e-05  -1.4290522486506613e-06 -1.1800478401884310e-07 -1.9891870493052623e-05  -1.4352213384319738e-06 -9.0627059137187015e-08 -2.1370459954640537e-05  -1.4395061231183786e-06 -4.5581829023547886e-08 -2.2840395750486907e-05  -7.6676069064326377e-21 -3.3140270432506787e-20 -3.3602689831141526e-07  0.0000000000000000e+00 0.0000000000000000e+00 0.0000000000000000e+00  0.0000000000000000e+00 0.0000000000000000e+00 0.0000000000000000e+00  -1.5331053572362205e-20 -1.0199545280804621e-19 -8.9520406990129765e-07  -2.2877028453494925e-20 -1.7990490399789272e-19 -1.6182399170896928e-06  -3.0748482605078690e-20 -2.5836213369094262e-19 -2.4773875300750616e-06  -3.6633449304396446e-20 -3.4637194514710030e-19 -3.4555985199422634e-06  -4.0403586106270553e-20 -4.5595513558164861e-19 -4.5380346680725954e-06  -4.3376279454186149e-20 -5.7706037895544438e-19 -5.7106075991041589e-06  -4.1677566673994789e-20 -6.8262712420684762e-19 -6.9599480156954380e-06  -4.0223506165833195e-20 -7.5733733504797831e-19 -8.2735106073341754e-06  -3.9870369492029077e-20 -8.1165677377473889e-19 -9.6396380462400578e-06  -3.0021088308473746e-20 -8.6979841962559622e-19 -1.1047589316762215e-05  -2.7169318623566325e-20 -9.6127609417909999e-19 -1.2487550055165948e-05  -1.5791137808126262e-20 -1.1414146577838585e-18 -1.3950635157767900e-05  -1.9189195602048863e-20 -1.4469679701869742e-18 -1.5428889313400395e-05  -1.3284827724495368e-20 -1.8650284543851436e-18 -1.6915292084413960e-05  1.0969532132751240e-21 -2.3403726576521874e-18 -1.8403784088940727e-05  1.0332643785718619e-20 -2.7596645855461543e-18 -1.9889360145193658e-05  2.5778400511965417e-20 -2.9747682346144755e-18 -2.1368351134313272e-05  2.7534562974410189e-20 -3.0058288163302434e-18 -2.2839228669887610e-05  2.2261778337907159e-20 -3.0478718459239011e-18 -2.4304708696351640e-05  2.2291059251854312e-19 -3.0472350370950872e-18 -2.4327073343235523e-05  0.0000000000000000e+00 0.0000000000000000e+00 0.0000000000000000e+00  4.5961735251280676e-19 -3.0339427171851147e-18 -2.4336526717380556e-05  0.0000000000000000e+00 0.0000000000000000e+00 0.0000000000000000e+00  6.3932544585863990e-19 -3.0349580179641352e-18 -2.4327073343234131e-05  0.0000000000000000e+00 0.0000000000000000e+00 0.0000000000000000e+00  8.5240259871191287e-19 -3.0350225397875955e-18 -2.4304708696348845e-05  6.6466795621797217e-20 -1.0850677565513673e-20 -3.3602689831109842e-07  1.3643899490242489e-19 -3.7157306982319300e-20 -8.9520406990056444e-07  2.0615381856167727e-19 -7.9730468758453497e-20 -1.6182399170884750e-06  2.7400106575292539e-19 -1.4609603796499053e-19 -2.4773875300733061e-06  3.3986956869348785e-19 -2.3315243670176892e-19 -3.4555985199399489e-06  4.0309447604051637e-19 -3.3990336343362363e-19 -4.5380346680697205e-06  4.5875975571386448e-19 -4.8439724234306481e-19 -5.7106075991007276e-06  5.1572768447810281e-19 -6.9254487571295878e-19 -6.9599480156914807e-06  5.6665115935123818e-19 -9.7317284117468140e-19 -8.2735106073297420e-06  6.2174321643646912e-19 -1.2972149145516457e-18 -9.6396380462351687e-06  6.6479492071328885e-19 -1.6218557916957511e-18 -1.1047589316756940e-05  6.9982356448380373e-19 -1.9220981944707586e-18 -1.2487550055160412e-05  7.2178693238356277e-19 -2.1882250642967026e-18 -1.3950635157762196e-05  7.3620086973245144e-19 -2.3619109953839571e-18 -1.5428889313394642e-05  7.5713170748713075e-19 -2.3557668932428137e-18 -1.6915292084408241e-05  7.7729032761198515e-19 -2.1702611833816410e-18 -1.8403784088935299e-05  8.0729929959132482e-19 -2.0074195792357715e-18 -1.9889360145188698e-05  8.3509903168147257e-19 -2.1368523132467285e-18 -2.1368351134308915e-05  8.6042267666267536e-19 -2.5684055224166776e-18 -2.2839228669884026e-05  1.9206463246268771e-07 2.6167278929947849e-08 -3.5431088991400826e-07  0.0000000000000000e+00 0.0000000000000000e+00 0.0000000000000000e+00  0.0000000000000000e+00 0.0000000000000000e+00 0.0000000000000000e+00  3.7934970467070091e-07 9.9142639767185683e-09 -9.1935247503432190e-07  5.4349562579081016e-07 -2.5641431416207892e-08 -1.6398292951485611e-06  6.8696905133008283e-07 -5.6046478526577306e-08 -2.4960644429434932e-06  8.1324927699823788e-07 -7.7813707813602536e-08 -3.4719752452287885e-06  9.2431119716670556e-07 -9.3040040094707777e-08 -4.5524930412793173e-06  1.0213736922169685e-06 -1.0412851175359774e-07 -5.7233540494663346e-06  1.1054090733151035e-06 -1.1272014737632493e-07 -6.9711208595414070e-06  1.1773345794343741e-06 -1.1975771686360955e-07 -8.2832284777488309e-06  1.2380659229294428e-06 -1.2572209489705407e-07 -9.6480160036988559e-06  1.2885266943283742e-06 -1.3080712501998121e-07 -1.1054743215234801e-05  1.3296480418113130e-06 -1.3500177691911539e-07 -1.2493597901447655e-05  1.3623696779202025e-06 -1.3808412273522616e-07 -1.3955698738730275e-05  1.3876468607665400e-06 -1.3951900708409353e-07 -1.5433097396416367e-05  1.4064677103234353e-06 -1.3822869845261645e-07 -1.6918784975098529e-05  1.4198845783645299e-06 -1.3220260521997041e-07 -1.8406714591974755e-05  1.4290522486510056e-06 -1.1800478401952165e-07 -1.9891870493057597e-05  1.4352213384322836e-06 -9.0627059138281302e-08 -2.1370459954644901e-05  1.4395061231186579e-06 -4.5581829024722992e-08 -2.2840395750490445e-05  1.4415895595604923e-06 1.9354044476864647e-09 -2.4302921758751743e-05  1.4563570443805778e-06 1.8960748489797252e-09 -2.4328522595320738e-05  0.0000000000000000e+00 0.0000000000000000e+00 0.0000000000000000e+00  1.4693460035148780e-06 -3.7282640815752868e-18 -2.4338664073097842e-05  0.0000000000000000e+00 0.0000000000000000e+00 0.0000000000000000e+00  1.4563570443813056e-06 -1.8960748564078604e-09 -2.4328522595319393e-05  0.0000000000000000e+00 0.0000000000000000e+00 0.0000000000000000e+00  1.4415895595619469e-06 -1.9354044550973338e-09 -2.4302921758748965e-05  1.9206463246268291e-07 -2.6167278929989536e-08 -3.5431088991369677e-07  3.7934970467070033e-07 -9.9142639768248362e-09 -9.1935247503359991e-07  5.4349562579082858e-07 2.5641431416054526e-08 -1.6398292951473558e-06  6.8696905133013439e-07 5.6046478526388325e-08 -2.4960644429417550e-06  8.1324927699833942e-07 7.7813707813369125e-08 -3.4719752452264935e-06  9.2431119716686321e-07 9.3040040094401085e-08 -4.5524930412764602e-06  1.0213736922171944e-06 1.0412851175317618e-07 -5.7233540494629270e-06  1.1054090733154110e-06 1.1272014737573407e-07 -6.9711208595374767e-06  1.1773345794347690e-06 1.1975771686279547e-07 -8.2832284777444111e-06  1.2380659229299262e-06 1.2572209489597961e-07 -9.6480160036940007e-06  1.2885266943289635e-06 1.3080712501859395e-07 -1.1054743215229563e-05  1.3296480418120149e-06 1.3500177691733556e-07 -1.2493597901442117e-05  1.3623696779210252e-06 1.3808412273290600e-07 -1.3955698738724552e-05  1.3876468607674754e-06 1.3951900708113675e-07 -1.5433097396410625e-05  1.4064677103244805e-06 1.3822869844903268e-07 -1.6918784975092810e-05  1.4198845783656763e-06 1.3220260521580404e-07 -1.8406714591969337e-05  1.4290522486522653e-06 1.1800478401475348e-07 -1.9891870493052681e-05  1.4352213384336433e-06 9.0627059132806346e-08 -2.1370459954640608e-05  1.4395061231200786e-06 4.5581829018346680e-08 -2.2840395750486891e-05  4.6175571480364638e-07 1.1873652741403548e-07 -4.2469382728648617e-07  0.0000000000000000e+00 0.0000000000000000e+00 0.0000000000000000e+00  0.0000000000000000e+00 0.0000000000000000e+00 0.0000000000000000e+00  8.1668525194074996e-07 1.4982853127587755e-07 -9.8871635533126684e-07  1.1304926362274008e-06 1.5063560788315941e-07 -1.7010917221909999e-06  1.4108213152276725e-06 1.4031656272415795e-07 -2.5501302908621668e-06  1.6600857537579792e-06 1.2657288186445623e-07 -3.5198618876754612e-06  1.8799426170766409e-06 1.1239331549995009e-07 -4.5948320700027165e-06  2.0720285642555808e-06 9.8808492937742703e-08 -5.7605796111415411e-06  2.2380697593452620e-06 8.6119283280056673e-08 -7.0035997086758658e-06  2.3798632848850661e-06 7.4388818734432682e-08 -8.3113109770212358e-06  2.4992459841379898e-06 6.3616495173694496e-08 -9.6720512592547668e-06  2.5980735492595426e-06 5.3789930505587731e-08 -1.1075082510518561e-05  2.6782099877295689e-06 4.4894440463765368e-08 -1.2510595929885497e-05  2.7415247532787097e-06 3.6907771078620650e-08 -1.3969716285371910e-05  2.7898977887296229e-06 2.9788165987827867e-08 -1.5444507556812822e-05  2.8252382166508116e-06 2.3462008912628278e-08 -1.6927983886212044e-05  2.8495294992907186e-06 1.7836407100189557e-08 -1.8414131087863095e-05  2.8649159219776327e-06 1.2927105085938788e-08 -1.9897940530173335e-05  2.8738083860214592e-06 9.3652226688894390e-09 -2.1375433904874299e-05  2.8787446967150381e-06 9.9913355825114507e-09 -2.2843555647312536e-05  2.8802670313567336e-06 2.3353300066237517e-08 -2.4297694547152746e-05  2.8587949435420727e-06 1.5013197946273452e-08 -2.4330608591054951e-05  0.0000000000000000e+00 0.0000000000000000e+00 0.0000000000000000e+00  2.8512249918081499e-06 -4.3718165143266452e-18 -2.4341566768071178e-05  0.0000000000000000e+00 0.0000000000000000e+00 0.0000000000000000e+00  2.8587949435430701e-06 -1.5013197955035055e-08 -2.4330608591053698e-05  0.0000000000000000e+0