<?xml version="1.0"?>
<VTKFile type="UnstructuredGrid"  version="0.1"  >
<UnstructuredGrid>
<Piece  NumberOfPoints="2850" NumberOfCells="5634">
<Points>
<DataArray  type="Float64"  NumberOfComponents="3"  format="ascii">5.375 0.125 0  5.25 0 0  5.375 0 0  5.5 0 0  5.25 0.125 0  5.25 0.25 0  5.125 0.125 0  5.125 0 0  5 0 0  5.5 0.25 0  5.375 0.25 0  5.5 0.125 0  5.375 0.375 0  5.5 0.375 0  5.5 0.5 0  5.375 0 0.125  5.25 0 0.125  5.25 0 0.25  5.125 0 0.125  5.5 0 0.25  5.375 0 0.25  5.5 0 0.125  5.375 0 0.375  5.5 0 0.375  5.5 0 0.5  5.125 0.375 0  5.25 0.5 0  5.25 0.375 0  5.125 0.5 0  5 0.5 0  5.375 0.5 0  5 0.25 0  5.125 0.25 0  5 0.375 0  5 0.125 0  5.125 0 0.375  5.25 0 0.5  5.25 0 0.375  5.125 0 0.5  5 0 0.5  5.375 0 0.5  5 0 0.25  5.125 0 0.25  5 0 0.375  5 0 0.125  5.625 0.375 0  5.625 0.25 0  5.75 0.25 0  5.625 0.125 0  5.75 0.5 0  5.75 0.375 0  5.625 0.5 0  5.875 0.375 0  5.875 0.5 0  6 0.5 0  5.625 0 0.375  5.625 0 0.25  5.75 0 0.25  5.625 0 0.125  5.75 0 0.5  5.75 0 0.375  5.625 0 0.5  5.875 0 0.375  5.875 0 0.5  6 0 0.5  5.875 0.125 0  6 0.25 0  5.875 0.25 0  6 0.125 0  6 0 0  6 0.375 0  5.75 0 0  5.75 0.125 0  5.875 0 0  5.625 0 0  5.875 0 0.125  6 0 0.25  5.875 0 0.25  6 0 0.125  6 0 0.375  5.75 0 0.125  5.375 0.625 0  5.5 0.75 0  5.5 0.625 0  5.375 0.75 0  5.25 0.75 0  5.375 0.875 0  5.5 0.875 0  5.5 1 0  5.25 0.625 0  5.125 0.625 0  5.875 0.625 0  5.75 0.625 0  5.75 0.75 0  5.625 0.625 0  6 0.75 0  5.875 0.75 0  6 0.625 0  5.875 0.875 0  6 0.875 0  6 1 0  5.625 0.875 0  5.625 0.75 0  5.75 1 0  5.75 0.875 0  5.625 1 0  5.875 1 0  5.375 0 0.625  5.5 0 0.75  5.5 0 0.625  5.375 0 0.75  5.25 0 0.75  5.375 0 0.875  5.5 0 0.875  5.5 0 1  5.25 0 0.625  5.125 0 0.625  5.875 0 0.625  5.75 0 0.625  5.75 0 0.75  5.625 0 0.625  6 0 0.75  5.875 0 0.75  6 0 0.625  5.875 0 0.875  6 0 0.875  6 0 1  5.625 0 0.875  5.625 0 0.75  5.75 0 1  5.75 0 0.875  5.625 0 1  5.875 0 1  5.25 0 1  5.25 0 0.875  5.375 0 1  5.125 0.875 0  5.25 1 0  5.25 0.875 0  5.125 1 0  5 1 0  5.375 1 0  5 0.75 0  5.125 0.75 0  5 0.875 0  5 0.625 0  6.125 0.375 0  6.25 0.5 0  6.125 0.5 0  6.25 0.375 0  6.25 0.25 0  6.375 0.375 0  6.375 0.5 0  6.5 0.5 0  6.125 0.25 0  6.125 0.125 0  6.125 0 0.375  6.25 0 0.5  6.125 0 0.5  6.25 0 0.375  6.25 0 0.25  6.375 0 0.375  6.375 0 0.5  6.5 0 0.5  6.125 0 0.25  6.125 0 0.125  6.375 0.125 0  6.5 0.25 0  6.375 0.25 0  6.5 0.125 0  6.5 0 0  6.5 0.375 0  6.25 0 0  6.25 0.125 0  6.375 0 0  6.125 0 0  6.375 0 0.125  6.5 0 0.25  6.375 0 0.25  6.5 0 0.125  6.5 0 0.375  6.25 0 0.125  6.375 0.625 0  6.25 0.625 0  6.25 0.75 0  6.125 0.625 0  6.5 0.75 0  6.375 0.75 0  6.5 0.625 0  6.375 0.875 0  6.5 0.875 0  6.5 1 0  6.125 0.875 0  6.125 0.75 0  6.25 1 0  6.25 0.875 0  6.125 1 0  6.375 1 0  6.375 0 0.625  6.25 0 0.625  6.25 0 0.75  6.125 0 0.625  6.5 0 0.75  6.375 0 0.75  6.5 0 0.625  6.375 0 0.875  6.5 0 0.875  6.5 0 1  6.125 0 0.875  6.125 0 0.75  6.25 0 1  6.25 0 0.875  6.125 0 1  6.375 0 1  6.625 0.375 0  6.75 0.5 0  6.625 0.5 0  6.75 0.375 0  6.75 0.25 0  6.875 0.375 0  6.875 0.5 0  7 0.5 0  6.625 0.25 0  6.625 0.125 0  6.625 0 0.375  6.75 0 0.5  6.625 0 0.5  6.75 0 0.375  6.75 0 0.25  6.875 0 0.375  6.875 0 0.5  7 0 0.5  6.625 0 0.25  6.625 0 0.125  6.875 0.125 0  7 0.25 0  6.875 0.25 0  7 0.125 0  7 0 0  7 0.375 0  6.75 0 0  6.75 0.125 0  6.875 0 0  6.625 0 0  6.875 0 0.125  7 0 0.25  6.875 0 0.25  7 0 0.125  7 0 0.375  6.75 0 0.125  6.875 0.625 0  6.75 0.625 0  6.75 0.75 0  6.625 0.625 0  7 0.75 0  6.875 0.75 0  7 0.625 0  6.875 0.875 0  7 0.875 0  7 1 0  6.625 0.875 0  6.625 0.75 0  6.75 1 0  6.75 0.875 0  6.625 1 0  6.875 1 0  6.875 0 0.625  6.75 0 0.625  6.75 0 0.75  6.625 0 0.625  7 0 0.75  6.875 0 0.75  7 0 0.625  6.875 0 0.875  7 0 0.875  7 0 1  6.625 0 0.875  6.625 0 0.75  6.75 0 1  6.75 0 0.875  6.625 0 1  6.875 0 1  7.125 0.375 0  7.25 0.5 0  7.125 0.5 0  7.25 0.375 0  7.25 0.25 0  7.375 0.375 0  7.375 0.5 0  7.5 0.5 0  7.125 0.25 0  7.125 0.125 0  7.125 0 0.375  7.25 0 0.5  7.125 0 0.5  7.25 0 0.375  7.25 0 0.25  7.375 0 0.375  7.375 0 0.5  7.5 0 0.5  7.125 0 0.25  7.125 0 0.125  7.375 0.125 0  7.5 0.25 0  7.375 0.25 0  7.5 0.125 0  7.5 0 0  7.5 0.375 0  7.25 0 0  7.25 0.125 0  7.375 0 0  7.125 0 0  7.375 0 0.125  7.5 0 0.25  7.375 0 0.25  7.5 0 0.125  7.5 0 0.375  7.25 0 0.125  7.375 0.625 0  7.25 0.625 0  7.25 0.75 0  7.125 0.625 0  7.5 0.75 0  7.375 0.75 0  7.5 0.625 0  7.375 0.875 0  7.5 0.875 0  7.5 1 0  7.125 0.875 0  7.125 0.75 0  7.25 1 0  7.25 0.875 0  7.125 1 0  7.375 1 0  7.375 0 0.625  7.25 0 0.625  7.25 0 0.75  7.125 0 0.625  7.5 0 0.75  7.375 0 0.75  7.5 0 0.625  7.375 0 0.875  7.5 0 0.875  7.5 0 1  7.125 0 0.875  7.125 0 0.75  7.25 0 1  7.25 0 0.875  7.125 0 1  7.375 0 1  7.625 0.375 0  7.75 0.5 0  7.625 0.5 0  7.75 0.375 0  7.75 0.25 0  7.875 0.375 0  7.875 0.5 0  8 0.5 0  7.625 0.25 0  7.625 0.125 0  7.625 0 0.375  7.75 0 0.5  7.625 0 0.5  7.75 0 0.375  7.75 0 0.25  7.875 0 0.375  7.875 0 0.5  8 0 0.5  7.625 0 0.25  7.625 0 0.125  7.875 0.125 0  8 0.25 0  7.875 0.25 0  8 0.125 0  8 0 0  8 0.375 0  7.75 0 0  7.75 0.125 0  7.875 0 0  7.625 0 0  7.875 0 0.125  8 0 0.25  7.875 0 0.25  8 0 0.125  8 0 0.375  7.75 0 0.125  7.875 0.625 0  7.75 0.625 0  7.75 0.75 0  7.625 0.625 0  8 0.75 0  7.875 0.75 0  8 0.625 0  7.875 0.875 0  8 0.875 0  8 1 0  7.625 0.875 0  7.625 0.75 0  7.75 1 0  7.75 0.875 0  7.625 1 0  7.875 1 0  7.875 0 0.625  7.75 0 0.625  7.75 0 0.75  7.625 0 0.625  8 0 0.75  7.875 0 0.75  8 0 0.625  7.875 0 0.875  8 0 0.875  8 0 1  7.625 0 0.875  7.625 0 0.75  7.75 0 1  7.75 0 0.875  7.625 0 1  7.875 0 1  8.125 0.375 0  8.25 0.5 0  8.125 0.5 0  8.25 0.375 0  8.25 0.25 0  8.375 0.375 0  8.375 0.5 0  8.5 0.5 0  8.125 0.25 0  8.125 0.125 0  8.125 0 0.375  8.25 0 0.5  8.125 0 0.5  8.25 0 0.375  8.25 0 0.25  8.375 0 0.375  8.375 0 0.5  8.5 0 0.5  8.125 0 0.25  8.125 0 0.125  8.375 0.125 0  8.5 0.25 0  8.375 0.25 0  8.5 0.125 0  8.5 0 0  8.5 0.375 0  8.25 0 0  8.25 0.125 0  8.375 0 0  8.125 0 0  8.375 0 0.125  8.5 0 0.25  8.375 0 0.25  8.5 0 0.125  8.5 0 0.375  8.25 0 0.125  8.375 0.625 0  8.25 0.625 0  8.25 0.75 0  8.125 0.625 0  8.5 0.75 0  8.375 0.75 0  8.5 0.625 0  8.375 0.875 0  8.5 0.875 0  8.5 1 0  8.125 0.875 0  8.125 0.75 0  8.25 1 0  8.25 0.875 0  8.125 1 0  8.375 1 0  8.375 0 0.625  8.25 0 0.625  8.25 0 0.75  8.125 0 0.625  8.5 0 0.75  8.375 0 0.75  8.5 0 0.625  8.375 0 0.875  8.5 0 0.875  8.5 0 1  8.125 0 0.875  8.125 0 0.75  8.25 0 1  8.25 0 0.875  8.125 0 1  8.375 0 1  8.625 0.375 0  8.75 0.5 0  8.625 0.5 0  8.75 0.375 0  8.75 0.25 0  8.875 0.375 0  8.875 0.5 0  9 0.5 0  8.625 0.25 0  8.625 0.125 0  8.625 0 0.375  8.75 0 0.5  8.625 0 0.5  8.75 0 0.375  8.75 0 0.25  8.875 0 0.375  8.875 0 0.5  9 0 0.5  8.625 0 0.25  8.625 0 0.125  8.875 0.125 0  9 0.25 0  8.875 0.25 0  9 0.125 0  9 0 0  9 0.375 0  8.75 0 0  8.75 0.125 0  8.875 0 0  8.625 0 0  8.875 0 0.125  9 0 0.25  8.875 0 0.25  9 0 0.125  9 0 0.375  8.75 0 0.125  8.875 0.625 0  8.75 0.625 0  8.75 0.75 0  8.625 0.625 0  9 0.75 0  8.875 0.75 0  9 0.625 0  8.875 0.875 0  9 0.875 0  9 1 0  8.625 0.875 0  8.625 0.75 0  8.75 1 0  8.75 0.875 0  8.625 1 0  8.875 1 0  8.875 0 0.625  8.75 0 0.625  8.75 0 0.75  8.625 0 0.625  9 0 0.75  8.875 0 0.75  9 0 0.625  8.875 0 0.875  9 0 0.875  9 0 1  8.625 0 0.875  8.625 0 0.75  8.75 0 1  8.75 0 0.875  8.625 0 1  8.875 0 1  9.125 0.375 0  9.25 0.5 0  9.125 0.5 0  9.25 0.375 0  9.25 0.25 0  9.375 0.375 0  9.375 0.5 0  9.5 0.5 0  9.125 0.25 0  9.125 0.125 0  9.125 0 0.375  9.25 0 0.5  9.125 0 0.5  9.25 0 0.375  9.25 0 0.25  9.375 0 0.375  9.375 0 0.5  9.5 0 0.5  9.125 0 0.25  9.125 0 0.125  9.375 0.125 0  9.5 0.25 0  9.375 0.25 0  9.5 0.125 0  9.5 0 0  9.5 0.375 0  9.25 0 0  9.25 0.125 0  9.375 0 0  9.125 0 0  9.375 0 0.125  9.5 0 0.25  9.375 0 0.25  9.5 0 0.125  9.5 0 0.375  9.25 0 0.125  9.375 0.625 0  9.25 0.625 0  9.25 0.75 0  9.125 0.625 0  9.5 0.75 0  9.375 0.75 0  9.5 0.625 0  9.375 0.875 0  9.5 0.875 0  9.5 1 0  9.125 0.875 0  9.125 0.75 0  9.25 1 0  9.25 0.875 0  9.125 1 0  9.375 1 0  9.375 0 0.625  9.25 0 0.625  9.25 0 0.75  9.125 0 0.625  9.5 0 0.75  9.375 0 0.75  9.5 0 0.625  9.375 0 0.875  9.5 0 0.875  9.5 0 1  9.125 0 0.875  9.125 0 0.75  9.25 0 1  9.25 0 0.875  9.125 0 1  9.375 0 1  9.625 0.375 0  9.75 0.5 0  9.625 0.5 0  9.75 0.375 0  9.75 0.25 0  9.875 0.375 0  9.875 0.5 0  10 0.5 0  9.625 0.25 0  9.625 0.125 0  9.625 0 0.375  9.75 0 0.5  9.625 0 0.5  9.75 0 0.375  9.75 0 0.25  9.875 0 0.375  9.875 0 0.5  10 0 0.5  9.625 0 0.25  9.625 0 0.125  9.875 0.125 0  10 0.25 0  9.875 0.25 0  10 0.125 0  10 0 0  10 0.375 0  9.75 0 0  9.75 0.125 0  9.875 0 0  9.625 0 0  9.875 0 0.125  10 0 0.25  9.875 0 0.25  10 0 0.125  10 0 0.375  9.75 0 0.125  9.875 0.625 0  9.75 0.625 0  9.75 0.75 0  9.625 0.625 0  10 0.75 0  9.875 0.75 0  10 0.625 0  9.875 0.875 0  10 0.875 0  10 1 0  9.625 0.875 0  9.625 0.75 0  9.75 1 0  9.75 0.875 0  9.625 1 0  9.875 1 0  9.875 0 0.625  9.75 0 0.625  9.75 0 0.75  9.625 0 0.625  10 0 0.75  9.875 0 0.75  10 0 0.625  9.875 0 0.875  10 0 0.875  10 0 1  9.625 0 0.875  9.625 0 0.75  9.75 0 1  9.75 0 0.875  9.625 0 1  9.875 0 1  10 0.375 0.125  10 0.5 0.25  10 0.5 0.125  10 0.375 0.25  10 0.25 0.25  10 0.375 0.375  10 0.5 0.375  10 0.5 0.5  10 0.25 0.125  10 0.125 0.125  10 0.125 0.375  10 0.25 0.5  10 0.125 0.5  10 0.25 0.375  10 0.375 0.5  10 0.125 0.25  10 0.625 0.375  10 0.625 0.25  10 0.75 0.25  10 0.625 0.125  10 0.75 0.5  10 0.75 0.375  10 0.625 0.5  10 0.875 0.375  10 0.875 0.5  10 1 0.5  10 0.875 0.125  10 0.75 0.125  10 1 0.25  10 0.875 0.25  10 1 0.125  10 1 0.375  10 0.375 0.625  10 0.25 0.625  10 0.25 0.75  10 0.125 0.625  10 0.5 0.75  10 0.375 0.75  10 0.5 0.625  10 0.375 0.875  10 0.5 0.875  10 0.5 1  10 0.875 0.625  10 0.75 0.625  10 0.75 0.75  10 0.625 0.625  10 1 0.75  10 0.875 0.75  10 1 0.625  10 0.875 0.875  10 1 0.875  10 1 1  10 0.625 0.875  10 0.625 0.75  10 0.75 1  10 0.75 0.875  10 0.625 1  10 0.875 1  10 0.125 0.875  10 0.125 0.75  10 0.25 1  10 0.25 0.875  10 0.125 1  10 0.375 1  5.375 1.125 0  5.5 1.25 0  5.5 1.125 0  5.375 1.25 0  5.25 
[...]
<PointData  Vectors="u"> 
<DataArray  type="Float64"  Name="u"  NumberOfComponents="3" format="ascii">-2.5549867071453901e-06 -5.0672910088370495e-08 -1.0850501150592551e-05  -2.5511127859238560e-06 -5.8585837205696515e-08 -1.0368915394524128e-05  -2.5751235338583148e-06 -5.7327573636298239e-08 -1.0722389780346961e-05  -2.5980735492547577e-06 -5.3789930505519796e-08 -1.1075082510496643e-05  -2.5303443935486424e-06 -5.2287764458000722e-08 -1.0500929099084810e-05  -2.5124750119451907e-06 -4.5588733984033647e-08 -1.0650133404189211e-05  -2.5046149509124844e-06 -5.4971839431021003e-08 -1.0149376247865883e-05  -2.5257355461956708e-06 -6.2239179453870329e-08 -1.0020770877698066e-05  -2.4992459841333184e-06 -6.3616495173508586e-08 -9.6720512592355713e-06  -2.5612786199220089e-06 -4.1990880086659177e-08 -1.1355267632912565e-05  -2.5374074781740982e-06 -4.3805026506704118e-08 -1.1002144847947915e-05  -2.5782955300881503e-06 -4.8090938603778555e-08 -1.1206524090484463e-05  -2.5226584478187998e-06 -3.6948557528556033e-08 -1.1156756650771874e-05  -2.5467572194201883e-06 -3.5352824457444176e-08 -1.1509568592419956e-05  -2.5349968671964477e-06 -2.8615128929818592e-08 -1.1655668886061130e-05  -2.2474033760364434e-06 3.7830989157836235e-08 -1.0714826378240966e-05  -2.2261294720461361e-06 3.2543647905162178e-08 -1.0362927764715894e-05  -1.9036794177583734e-06 9.4318429311027526e-08 -1.0356264769508337e-05  -2.2039055957095949e-06 3.3484567239482362e-08 -1.0012569708922363e-05  -1.9393586516769124e-06 9.7954064392166618e-08 -1.1063487644512716e-05  -1.9219171683508836e-06 9.3716098006047751e-08 -1.0709517099457751e-05  -2.2675096240281809e-06 3.6763534570464350e-08 -1.1069594437415586e-05  -1.5985543400426081e-06 1.2519747585600653e-07 -1.0703840833759965e-05  -1.6130802637294986e-06 1.2463959786824623e-07 -1.1059321253185660e-05  -1.2885266943259943e-06 1.3080712502014241e-07 -1.1054743215212897e-05  -2.4707063102216517e-06 -4.0020574270327628e-08 -1.0456485588140488e-05  -2.4848761689956221e-06 -3.1014484675034739e-08 -1.0951292019198731e-05  -2.4972259821430025e-06 -3.8351506575872647e-08 -1.0804867516516331e-05  -2.4579187483167442e-06 -3.2210796171370631e-08 -1.0600942919945039e-05  -2.4298481250938186e-06 -3.3531610342773270e-08 -1.0256082726849068e-05  -2.5104671865351297e-06 -2.9752791864328058e-08 -1.1300870347283531e-05  -2.4587649000378571e-06 -4.9362920794008431e-08 -9.9542446923771493e-06  -2.4861765036030362e-06 -4.7490648815677963e-08 -1.0301499801827924e-05  -2.4427878198896748e-06 -4.1497241445676667e-08 -1.0109374081709103e-05  -2.4774870555493514e-06 -5.6690090886694056e-08 -9.8046134052569859e-06  -1.5671572401127351e-06 1.2203867663077656e-07 -1.0000667925864905e-05  -1.2645221025899509e-06 1.2837077182035040e-07 -1.0346772208369704e-05  -1.5831953273767145e-06 1.2160109294411033e-07 -1.0351754697813586e-05  -1.2515721460095151e-06 1.2542918461028862e-07 -9.9968972869164927e-06  -1.2380659229271207e-06 1.2572209489724719e-07 -9.6480160036796841e-06  -1.2767896391459986e-06 1.2797096966570029e-07 -1.0700344724939455e-05  -1.8643218107095627e-06 9.0431795999730564e-08 -9.6582932204444491e-06  -1.8844181061459306e-06 8.9956046276242282e-08 -1.0006834377188932e-05  -1.5502455334918510e-06 1.1832473598249275e-07 -9.6534226770695640e-06  -2.1804572297223652e-06 2.8075601717679662e-08 -9.6655395833008663e-06  -2.5698205979172977e-06 -3.4022797782093887e-08 -1.1865623653903460e-05  -2.5838487354681801e-06 -4.0294792558743058e-08 -1.1711426771283349e-05  -2.6054093269630996e-06 -3.8567529675797339e-08 -1.2068439997126470e-05  -2.6005689371557359e-06 -4.6578478093528335e-08 -1.1560297928159849e-05  -2.5804441934123784e-06 -2.6332074609749383e-08 -1.2367994812870333e-05  -2.5916153274597319e-06 -3.2499526860680687e-08 -1.2222264221820673e-05  -2.5582252775032248e-06 -2.7411826105580733e-08 -1.2009353464700412e-05  -2.6124264824561614e-06 -3.1241454434773264e-08 -1.2581891104286858e-05  -2.6014268227046737e-06 -2.5186321433200652e-08 -1.2725187369070088e-05  -2.6214517805448745e-06 -2.4163534715518278e-08 -1.3087077324582610e-05  -1.6269593804624237e-06 1.2811554721138295e-07 -1.1415638980333236e-05  -1.9558252516746636e-06 9.7224799034498763e-08 -1.1420848450561696e-05  -1.9715343922456242e-06 1.0133366023671092e-07 -1.1778764630188736e-05  -2.2867110146916791e-06 4.1927849211223909e-08 -1.1425751999448382e-05  -1.3101963077498145e-06 1.3302399880556990e-07 -1.1770731543793065e-05  -1.6400460907654657e-06 1.2743362439064780e-07 -1.1774924997859876e-05  -1.2996138073097496e-06 1.3029921766819913e-07 -1.1412404253445414e-05  -1.6525183566443172e-06 1.3078032284622137e-07 -1.2134894123354387e-05  -1.3201614978919577e-06 1.3240086493846320e-07 -1.2131907486444112e-05  -1.3296480418089093e-06 1.3500177691917216e-07 -1.2493597901422998e-05  -2.6415951161681088e-06 -4.2686457722434023e-08 -1.2277590344265498e-05  -2.6451007548046862e-06 -3.5316445203551662e-08 -1.2788485948258567e-05  -2.6257338840915958e-06 -3.6957964631622974e-08 -1.2428159809452264e-05  -2.6604129269146830e-06 -4.0305859606030721e-08 -1.2640795086172970e-05  -2.6782099877247340e-06 -4.4894440463861089e-08 -1.2510595929860833e-05  -2.6320339390654807e-06 -2.9789576745701980e-08 -1.2941775548734473e-05  -2.6403614596144248e-06 -4.9226898410170419e-08 -1.1789355583534575e-05  -2.6215738539237880e-06 -4.4097737824346799e-08 -1.1920196419424517e-05  -2.6597644076768891e-06 -4.8202538902654633e-08 -1.2150557430062442e-05  -2.6197220449049806e-06 -5.2649394574968198e-08 -1.1432707941290419e-05  -2.3220327363680097e-06 4.5770294000080098e-08 -1.2144178595747152e-05  -2.0003820228703269e-06 1.0444240370803648e-07 -1.2500956778890260e-05  -1.9863174818165721e-06 1.0047252249009006e-07 -1.2139660328638604e-05  -2.3382101707525394e-06 4.4445188983881985e-08 -1.2506033105088285e-05  -1.6642390823255802e-06 1.2996459855858552e-07 -1.2497426813656355e-05  -2.3048017074571669e-06 4.0733205664132138e-08 -1.1784342488426048e-05  -2.5011061569266286e-06 -2.2510514996526139e-08 -1.1427328388150088e-05  -2.5192277977007147e-06 -1.4485647248464945e-08 -1.1875800657880757e-05  -2.5257317630591063e-06 -2.1572787384481462e-08 -1.1778163823367090e-05  -2.4943028489918495e-06 -1.5049577222593373e-08 -1.1519993903200240e-05  -2.4683165105904181e-06 -1.5685612847120676e-08 -1.1171891182353177e-05  -2.4903299135705793e-06 -7.5615998297610270e-09 -1.1582550963396283e-05  -2.5152189986030368e-06 -7.2499311062328662e-09 -1.1932392164002901e-05  -2.5139714242525192e-06 7.6022311830610045e-19 -1.1955821324643104e-05  -2.4751465957457049e-06 -2.3372514267027849e-08 -1.1074077514114008e-05  -2.4480997265292943e-06 -2.4354329569263606e-08 -1.0727634408539628e-05  -2.5929809534920989e-06 -1.9085076009553151e-08 -1.2851055175771969e-05  -2.5716432431133613e-06 -1.9860270862912470e-08 -1.2490159577211565e-05  -2.5654652010413976e-06 -1.3343820754334306e-08 -1.2587586065311710e-05  -2.5493219421494781e-06 -2.0754522680915131e-08 -1.2135539696629750e-05  -2.6072623074857799e-06 -1.2259137925485291e-08 -1.3306033539526455e-05  -2.5868426112724783e-06 -1.2765727833265284e-08 -1.2943225712686529e-05  -2.6131146359155518e-06 -1.8233555736667800e-08 -1.3208860324346592e-05  -2.5832581731002714e-06 -6.4195660269940313e-09 -1.3005538123946258e-05  -2.6036548791348359e-06 -6.1366099000386280e-09 -1.3362285426543263e-05  -2.6025324395656826e-06 8.2513352420817747e-19 -1.3385645524681275e-05  -2.5390726243553093e-06 -6.9761689554007507e-09 -1.2290422308136041e-05  -2.5428512586114208e-06 -1.3878815322678401e-08 -1.2227975257645129e-05  -2.5604722005354115e-06 7.9395299175067111e-19 -1.2667420419207617e-05  -2.5616572083806852e-06 -6.6789895897957815e-09 -1.2644020447650906e-05  -2.5377265792925167e-06 7.7715511610129090e-19 -1.2307490817694738e-05  -2.5819811890641105e-06 8.0979218966103127e-19 -1.3022538569949361e-05  -9.5643955525219674e-07 1.1438925250245605e-07 -1.0696441219730062e-05  -6.4294971150113532e-07 8.5031370526993454e-08 -1.1049389443860170e-05  -9.6522075456155891e-07 1.1405222822472037e-07 -1.1052256011775817e-05  -6.3704838797629735e-07 8.3615945462323180e-08 -1.0694773218456750e-05  -6.3088187926890213e-07 8.3810853957367755e-08 -1.0340970299258186e-05  -3.1836438118721679e-07 4.4670661824785777e-08 -1.0692702571106619e-05  -3.2130238558427202e-07 4.4557917868622749e-08 -1.1048674679470918e-05  7.5637174719579460e-20 -1.4638109662414054e-19 -1.1047589316740297e-05  -9.4715871916149708e-07 1.1222302649918749e-07 -1.0344091550107914e-05  -9.3747042924484981e-07 1.1247328246903365e-07 -9.9926563773869320e-06  -9.8908102907344336e-07 1.1768582533530538e-07 -1.2128630266160903e-05  -9.8153177104918487e-07 1.1570314395142178e-07 -1.1768428224711030e-05  -6.5385028879658121e-07 8.6125270262153586e-08 -1.1765803808440269e-05  -9.7361386760691678e-07 1.1613071738723242e-07 -1.1408822025764423e-05  -6.6364222288141724e-07 8.7079424526142375e-08 -1.2489073818009002e-05  -6.5886588088128840e-07 8.5801230173135006e-08 -1.2127187754492078e-05  -9.9617965063194181e-07 1.1715836830036461e-07 -1.2491468751284283e-05  -3.2928873291467516e-07 4.5758730350703920e-08 -1.2125459292523835e-05  -3.3166597822546326e-07 4.5575894232493077e-08 -1.2488440361250336e-05  8.1457715216183675e-20 -3.3060492456975668e-19 -1.2487550055141296e-05  -3.2411103735663397e-07 4.5248932494430100e-08 -1.1405374633412202e-05  -6.4852612351238115e-07 8.4774331065035982e-08 -1.1407269740014285e-05  7.7496549144291918e-20 -2.4187867544099120e-19 -1.1764145605638348e-05  -3.2676131947999940e-07 4.5103016462474711e-08 -1.1765130833656233e-05  7.6849956610219978e-20 -1.9372492110222465e-19 -1.1405544552351415e-05  7.9887776336035776e-20 -2.8590053836369996e-19 -1.2125600768760015e-05  7.3410942504314711e-20 -4.7089170834070869e-20 -1.0339020870911441e-05  -3.1525986055609185e-07 4.3947544983187006e-08 -1.0340211534691198e-05  7.4541194699966343e-20 -9.6274468328105089e-20 -1.0692902406848230e-05  -2.4367961023135040e-06 -8.1763162151313864e-09 -1.0883147778464783e-05  -2.4627965494907777e-06 7.2294362344505752e-19 -1.1252070103771734e-05  -2.4641066957871029e-06 -7.8499386775390498e-09 -1.1228620293682356e-05  -2.4353115973652934e-06 7.0353758872556881e-19 -1.0900333868689443e-05  -2.4067132665286428e-06 6.8413119965942994e-19 -1.0557396949359039e-05  -2.4889146941531776e-06 7.4156276615991651e-19 -1.1599680912619468e-05  -2.4124971170580076e-06 -1.6944537926230834e-08 -1.0477084656482563e-05  -2.4409634776234459e-06 -1.6278891754327932e-08 -1.0820501192480450e-05  -2.4080860183670475e-06 -8.4794276989888710e-09 -1.0533934175707929e-05  -2.4196536297983380e-06 -2.5260610080202451e-08 -1.0379123924479844e-05  -2.6507096492178260e-06 -2.8602161916188104e-08 -1.3304395621758789e-05  -2.6582528383530499e-06 -2.2107119491316940e-08 -1.3811742949006822e-05  -2.6403052470740637e-06 -2.3074253185606971e-08 -1.3447190254465411e-05  -2.6682464852738247e-06 -2.7220249025473144e-08 -1.3666952764919917e-05  -2.6805865498743574e-06 -3.2234631143420335e-08 -1.3514280515154192e-05  -2.6849034146999150e-06 -2.6101662577982261e-08 -1.4031998955562030e-05  -2.6750934680347275e-06 -2.1072835917477600e-08 -1.4174193923892522e-05  -2.6910799698780403e-06 -2.0159483311899727e-08 -1.4540824992976245e-05  -2.6632965499219116e-06 -3.3791987813936936e-08 -1.3151199605382963e-05  -2.6782989043987366e-06 -3.8994150942023980e-08 -1.3001252642754029e-05  -1.6753778454963156e-06 1.3316624986043335e-07 -1.2860496279290208e-05  -1.3469996250747678e-06 1.3670612890892379e-07 -1.3222261225518228e-05  -1.3385501070124973e-06 1.3424957612923859e-07 -1.2857744248332729e-05  -1.6858061859145930e-06 1.3219983640857504e-07 -1.3225745876706965e-05  -2.0260775685322729e-06 1.0725396254537518e-07 -1.3228983501513907e-05  -1.6956852181661755e-06 1.3523182363351452e-07 -1.3591393794475181e-05  -1.3548977772234255e-06 1.3580273687849843e-07 -1.3588862621101998e-05  -1.3623696779177832e-06 1.3808412273503192e-07 -1.3955698738702897e-05  -2.0135695434270332e-06 1.0343929982096793e-07 -1.2864842936577871e-05  -2.3535732292283270e-06 4.9347555821292238e-08 -1.2868996534897368e-05  -2.7109142277983749e-06 -3.5497839356103540e-08 -1.3730207599222747e-05  -2.7121004108690370e-06 -2.9317898147933582e-08 -1.4244732636577690e-05  -2.6967703915200926e-06 -3.0793345606670372e-08 -1.3879438787408786e-05  -2.7257087707177883e-06 -3.3312534403369410e-08 -1.4098412379035130e-05  -2.7415247532739011e-06 -3.6907771078934397e-08 -1.3969716285344534e-05  -2.7004861150628616e-06 -2.4787733706743073e-08 -1.4396666100619445e-05  -2.7118529580110327e-06 -4.0789486942241348e-08 -1.3237723344851321e-05  -2.6950465264196858e-06 -3.6712223435439832e-08 -1.3367218592696011e-05  -2.7271156675782062e-06 -3.9990782891868645e-08 -1.3604470572667030e-05  -2.6954842572259374e-06 -4.3984263391273814e-08 -1.2874828668778476e-05  -2.3815378253670252e-06 5.2641678075733817e-08 -1.3599154654365003e-05  -2.0487979845563029e-06 1.0972738511440003e-07 -1.3961822684832776e-05  -2.0377578888776459e-06 1.0609246965807808e-07 -1.3595344881807343e-05  -2.3941969844602315e-06 5.1033135356498947e-08 -1.3965979012381523e-05  -1.7048953111714247e-06 1.3408877538257520e-07 -1.3958859744337000e-05  -2.3679400007451248e-06 4.7885725604574661e-08 -1.3233585890395859e-05  -2.6675611956051805e-06 -1.5998660143874903e-08 -1.4299210211467758e-05  -2.6503789053039121e-06 -1.6690759331079420e-08 -1.3933071765886459e-05  -2.6448519128906974e-06 -1.1230268983947927e-08 -1.4029932404333095e-05  -2.6323165122641726e-06 -1.7500539016667862e-08 -1.3572676847288909e-05  -2.6784656749894739e-06 -1.0255352559031390e-08 -1.4758057870389504e-05  -2.6620860143091884e-06 -1.0707654488042666e-08 -1.4390687559988019e-05  -2.6836681018080839e-06 -1.5229248497793236e-08 -1.4661594696358431e-05  -2.6588893416484095e-06 -5.3902816196251795e-09 -1.4452619188525709e-05  -2.6752578961637194e-06 -5.1345747295118482e-09 -1.4813822197557432e-05  -2.6742604847556366e-06 8.7642060524949324e-19 -1.4837053456708305e-05  -2.6231197143762292e-06 -5.8912054408621471e-09 -1.3726679783348185e-05  -2.6265101110424106e-06 -1.1709189835842717e-08 -1.3664534769282616e-05  -2.6403847709683329e-06 8.5211999554278993e-19 -1.4109272047183071e-05  -2.6414446590806457e-06 -5.6221187748285669e-09 -1.4085966240068752e-05  -2.6219116350240699e-06 8.3901356487365247e-19 -1.3743602940192401e-05  -2.6577499134401019e-06 8.6501482030620882e-19 -1.4469451600460025e-05  -1.0152470068254744e-06 1.2012730889644510e-07 -1.3586145770722390e-05  -1.0092528060332646e-06 1.1838753142316134e-07 -1.3220296332039490e-05  -6.7238450521984478e-07 8.7870972979150854e-08 -1.3218118026780033e-05  -1.0029291609055234e-06 1.1903080911730891e-07 -1.2854755574771841e-05  -6.8013665995971750e-07 8.8464806262491199e-08 -1.3951913129275148e-05  -6.7636707439399027e-07 8.7379404260659435e-08 -1.3584904434777897e-05  -1.0208403967207446e-06 1.1934391462587486e-07 -1.3953887919330941e-05  -3.3805509825162109e-07 4.6529288495938888e-08 -1.3583482085146138e-05  -3.3993080881407380e-07 4.6250191571488992e-08 -1.3951351534842650e-05  9.1818033250063874e-20 -4.7057522818480487e-19 -1.3950635157740543e-05  -3.3392687362484796e-07 4.6190593233886072e-08 -1.2851845944911149e-05  -6.6812645129096421e-07 8.6679042218587809e-08 -1.2853416770083226e-05  8.4488622210895451e-20 -4.0879481998258645e-19 -1.3216721074024668e-05  -3.3604587684868336e-07 4.5964466958571705e-08 -1.3217521733936797e-05  8.3168367117752705e-20 -3.6961855139013857e-19 -1.2851960443458013e-05  8.8229233733979563e-20 -4.4019146958807078e-19 -1.3583571059437903e-05  -2.7152407589428007e-06 -2.3735367378578148e-08 -1.4763576717515358e-05  -2.7201648537349952e-06 -1.8315921993768883e-08 -1.5273144699639167e-05  -2.7060236485617224e-06 -1.9178149412968385e-08 -1.4905028477188712e-05  -2.7289855601642365e-06 -2.2486684607607127e-08 -1.5129791951296707e-05  -2.7398761461655770e-06 -2.6560366141450517e-08 -1.4978776447360614e-05  -2.7419541565461358e-06 -2.1496884716622398e-08 -1.5498001564038388e-05  -2.7333267966676419e-06 -1.7384740203761253e-08 -1.5638499432741296e-05  -2.7457377487326589e-06 -1.6569980725426927e-08 -1.6007483714696520e-05  -2.7263891408395980e-06 -2.7957095085110811e-08 -1.4611799841274633e-05  -2.7396754551219425e-06 -3.2192294996957563e-08 -1.4463423372355634e-05  -1.7135890141274606e-06 1.3691484054756147e-07 -1.4326593451234346e-05  -1.3758781336436697e-06 1.3905839597097481e-07 -1.4692946055003554e-05  -1.3693237344196158e-06 1.3699668817583919e-07 -1.4324269022383270e-05  -1.7216558029791298e-06 1.3555726512313359e-07 -1.4695804497468176e-05  -2.0687216465309094e-06 1.1180232736414104e-07 -1.4698510868308921e-05  -1.7292395264996790e-06 1.3812547633344456e-07 -1.5065160651365692e-05  -1.3819488036694306e-06 1.3773985676875566e-07 -1.5063028361988491e-05  -1.3876468607641396e-06 1.3951900708356506e-07 -1.5433097396386399e-05  -2.0590601207598602e-06 1.0838285378117737e-07 -1.4330173317286971e-05  -2.4061328552122855e-06 5.5625351760323428e-08 -1.4333660432626693e-05  -2.7648177109280477e-06 -2.9070256571667288e-08 -1.5199908836393583e-05  -2.7641477742944945e-06 -2.3953981134112696e-08 -1.5715358599111222e-05  -2.7523866802774152e-06 -2.5276371460591235e-08 -1.5347224496128465e-05  -2.7760589738482160e-06 -2.7068814897357937e-08 -1.5571101860021225e-05  -2.7898977887248783e-06 -2.9788165988422418e-08 -1.5444507556782861e-05  -2.7539769278148060e-06 -2.0309783152061487e-08 -1.5865192636159101e-05  -2.7674607098924291e-06 -3.3243350936863333e-08 -1.4705612129537130e-05  -2.7526343589351795e-06 -3.0100790515108434e-08 -1.4833364886567711e-05  -2.7790536458216364e-06 -3.2654935426672882e-08 -1.5075955723225039e-05  -2.7548934442004144e-06 -3.6216788475214896e-08 -1.4338490739577259e-05  -2.4275662409691575e-06 5.8258583339120290e-08 -1.5071580242167448e-05  -2.0860291074175782e-06 1.1339216593522115e-07 -1.5438143526172464e-05  -2.0776556060906547e-06 1.1023908672724900e-07 -1.5068394162804967e-05  -2.4371226341426616e-06 5.6305242504665398e-08 -1.5441493173989860e-05  -1.7362391526351717e-06 1.3649948360986697e-07 -1.5435674991236167e-05  -2.4171881744873442e-06 5.3855200704009329e-08 -1.4702249420779582e-05  -2.7267020791028265e-06 -1.3228937324022614e-08 -1.5762128725784564e-05  -2.7132128853903274e-06 -1.3845325407184643e-08 -1.5393201785952144e-05  -2.7083335147419130e-06 -9.3317714354332133e-09 -1.5489144352420229e-05  -2.6989464675417328e-06 -1.4576266517459179e-08 -1.5029445358107526e-05  -2.7346826892312405e-06 -8.4559357303260831e-09 -1.6221846465634815e-05  -2.7218842375766101e-06 -8.8600312546034210e-09 -1.5852502423486146e-05  -2.7392417863123401e-06 -1.2533924836955621e-08 -1.6126603650219435e-05  -2.7190724525305678e-06 -4.4657584389770582e-09 -1.5913779133568547e-05  -2.7318692088507833e-06 -4.2345513921586658e-09 -1.6276811458548997e-05  -2.7309959298222146e-06 9.0895206235458087e-19 -1.6299793772160168e-05  -2.6907975628974039e-06 -4.9156595750484515e-09 -1.5182095313633962e-05  -2.6938011640531144e-06 -9.7589445783388567e-09 -1.5120443199749677e-05  -2.7043888295987811e-06 8.9474753155913265e-19 -1.5567691670921986e-05  -2.7053239616566307e-06 -4.6726557053811037e-09 -1.5544563964205856e-05  -2.6897263587372629e-06 8.8570541101772908e-19 -1.5198817101484804e-05  -2.7180687632068799e-06 9.0193542844038946e-19 -1.5930360965566927e-05  -1.0356517153219866e-06 1.2132136046937025e-07 -1.5060803393581428e-05  -1.0310326696533690e-06 1.1995941238326926e-07 -1.4691278761059290e-05  -6.8695898308237588e-07 8.8809837744859482e-08 -1.4689494019155305e-05  -1.0261242074525109e-06 1.2091815838151911e-07 -1.4321806906429732e-05  -6.9291288770121159e-07 8.8833874216351292e-08 -1.5429953967884431e-05  -6.9002893708477582e-07 8.8060773048550665e-08 -1.5059737279122940e-05  -1.0399214549035570e-06 1.2013755484146644e-07 -1.5431562600992061e-05  -3.4490216787680218e-07 4.6826888541564336e-08 -1.5058583472616763e-05  -3.4633713057607249e-07 4.63941998