<?xml version="1.0"?>
<VTKFile type="UnstructuredGrid"  version="0.1"  >
<UnstructuredGrid>
<Piece  NumberOfPoints="2848" NumberOfCells="5630">
<Points>
<DataArray  type="Float64"  NumberOfComponents="3"  format="ascii">4.625 0.375 0  4.75 0.5 0  4.625 0.5 0  4.5 0.5 0  4.75 0.375 0  4.75 0.25 0  4.875 0.375 0  4.875 0.5 0  4.875 0.125 0  4.75 0 0  4.75 0.125 0  4.875 0 0  5 0 0  5 0.25 0  4.875 0.25 0  4.875 0 0.125  4.75 0 0.125  4.75 0 0.25  4.875 0 0.25  4.875 0 0.375  4.875 0.625 0  4.75 0.625 0  4.75 0.75 0  4.625 0.625 0  4.875 0.75 0  4.875 0.875 0  4.75 1 0  4.75 0.875 0  4.875 1.125 0  4.75 1.125 0  4.75 1.25 0  4.875 1.375 0  4.75 1.5 0  4.75 1.375 0  4.875 1.625 0  4.75 1.625 0  4.75 1.75 0  4.875 2 0.625  5 2 0.75  4.875 2 0.75  4.75 2 0.75  4.875 2 0.875  5 2 0.875  5 2 1  5.125 0 1.375  5.125 0 1.5  5 0 1.5  5 0 1.25  5.125 0 1.25  5 0 1.375  5.125 0 1.125  5 0 1.125  5 0 1  5.125 2 1.125  5 2 1.25  5 2 1.125  5.125 0 1.625  5.125 0 1.875  5.125 0 2  5 0 2  5 0 1.75  5.125 0 1.75  5 0 1.875  5 0 1.625  5.125 2 1.875  5.25 2 2  5.125 2 2  5 2 2  5 2 1.75  5.125 2 1.75  5.25 2 1.75  5 2 1.875  5.125 2 1.625  5 2 1.625  5 2 1.5  5.125 0.125 2  5.125 0.375 2  5.25 0.5 2  5.125 0.5 2  5 0.5 2  5 0.25 2  5.125 0.25 2  5 0.375 2  5 0.125 2  5.125 0.625 2  5.125 0.875 2  5.25 1 2  5.125 1 2  5 1 2  5 0.75 2  5.125 0.75 2  5.25 0.75 2  5 0.875 2  5 0.625 2  5.125 1.125 2  5.125 1.375 2  5.25 1.5 2  5.125 1.5 2  5 1.5 2  5 1.25 2  5.125 1.25 2  5.25 1.25 2  5 1.375 2  5 1.125 2  5.125 1.625 2  5.125 1.875 2  5.25 1.875 2  5.25 1.75 2  5 1.75 2  5.125 1.75 2  5 1.875 2  5 1.625 2  0.375 0.125 0  0.25 0 0  0.375 0 0  0.5 0 0  0.25 0.125 0  0.25 0.25 0  0.125 0.125 0  0.125 0 0  0 0 0  0.5 0.25 0  0.375 0.25 0  0.5 0.125 0  0.375 0.375 0  0.5 0.375 0  0.5 0.5 0  0.375 0 0.125  0.25 0 0.125  0.25 0 0.25  0.125 0 0.125  0.5 0 0.25  0.375 0 0.25  0.5 0 0.125  0.375 0 0.375  0.5 0 0.375  0.5 0 0.5  0.125 0.375 0  0.25 0.5 0  0.25 0.375 0  0.125 0.5 0  0 0.5 0  0.375 0.5 0  0 0.25 0  0.125 0.25 0  0 0.375 0  0 0.125 0  0.125 0 0.375  0.25 0 0.5  0.25 0 0.375  0.125 0 0.5  0 0 0.5  0.375 0 0.5  0 0 0.25  0.125 0 0.25  0 0 0.375  0 0 0.125  0 0.125 0.375  0 0.125 0.25  0 0.25 0.25  0 0.125 0.125  0 0.25 0.5  0 0.25 0.375  0 0.125 0.5  0 0.375 0.375  0 0.375 0.5  0 0.5 0.5  0 0.375 0.125  0 0.25 0.125  0 0.5 0.25  0 0.375 0.25  0 0.5 0.125  0 0.5 0.375  0.625 0.375 0  0.625 0.25 0  0.75 0.25 0  0.625 0.125 0  0.75 0.5 0  0.75 0.375 0  0.625 0.5 0  0.875 0.375 0  0.875 0.5 0  1 0.5 0  0.625 0 0.375  0.625 0 0.25  0.75 0 0.25  0.625 0 0.125  0.75 0 0.5  0.75 0 0.375  0.625 0 0.5  0.875 0 0.375  0.875 0 0.5  1 0 0.5  0.875 0.125 0  1 0.25 0  0.875 0.25 0  1 0.125 0  1 0 0  1 0.375 0  0.75 0 0  0.75 0.125 0  0.875 0 0  0.625 0 0  0.875 0 0.125  1 0 0.25  0.875 0 0.25  1 0 0.125  1 0 0.375  0.75 0 0.125  0.375 0.625 0  0.5 0.75 0  0.5 0.625 0  0.375 0.75 0  0.25 0.75 0  0.375 0.875 0  0.5 0.875 0  0.5 1 0  0.25 0.625 0  0.125 0.625 0  0.875 0.625 0  0.75 0.625 0  0.75 0.75 0  0.625 0.625 0  1 0.75 0  0.875 0.75 0  1 0.625 0  0.875 0.875 0  1 0.875 0  1 1 0  0.625 0.875 0  0.625 0.75 0  0.75 1 0  0.75 0.875 0  0.625 1 0  0.875 1 0  0.375 0 0.625  0.5 0 0.75  0.5 0 0.625  0.375 0 0.75  0.25 0 0.75  0.375 0 0.875  0.5 0 0.875  0.5 0 1  0.25 0 0.625  0.125 0 0.625  0.875 0 0.625  0.75 0 0.625  0.75 0 0.75  0.625 0 0.625  1 0 0.75  0.875 0 0.75  1 0 0.625  0.875 0 0.875  1 0 0.875  1 0 1  0.625 0 0.875  0.625 0 0.75  0.75 0 1  0.75 0 0.875  0.625 0 1  0.875 0 1  0 0.375 0.625  0 0.25 0.625  0 0.25 0.75  0 0.125 0.625  0 0.5 0.75  0 0.375 0.75  0 0.5 0.625  0 0.375 0.875  0 0.5 0.875  0 0.5 1  0.125 0 0.875  0.25 0 1  0.25 0 0.875  0.125 0 1  0 0 1  0.375 0 1  0 0 0.75  0.125 0 0.75  0 0 0.875  0 0 0.625  0 0.125 0.875  0 0.25 1  0 0.25 0.875  0 0.125 1  0 0.375 1  0 0.125 0.75  0 0.625 0.375  0 0.625 0.25  0 0.75 0.25  0 0.625 0.125  0 0.75 0.5  0 0.75 0.375  0 0.625 0.5  0 0.875 0.375  0 0.875 0.5  0 1 0.5  0.125 0.875 0  0.25 1 0  0.25 0.875 0  0.125 1 0  0 1 0  0.375 1 0  0 0.75 0  0.125 0.75 0  0 0.875 0  0 0.625 0  0 0.875 0.125  0 1 0.25  0 0.875 0.25  0 1 0.125  0 1 0.375  0 0.75 0.125  0 0.875 0.625  0 0.75 0.625  0 0.75 0.75  0 0.625 0.625  0 1 0.75  0 0.875 0.75  0 1 0.625  0 0.875 0.875  0 1 0.875  0 1 1  0 0.625 0.875  0 0.625 0.75  0 0.75 1  0 0.75 0.875  0 0.625 1  0 0.875 1  1.125 0.375 0  1.25 0.5 0  1.125 0.5 0  1.25 0.375 0  1.25 0.25 0  1.375 0.375 0  1.375 0.5 0  1.5 0.5 0  1.125 0.25 0  1.125 0.125 0  1.125 0 0.375  1.25 0 0.5  1.125 0 0.5  1.25 0 0.375  1.25 0 0.25  1.375 0 0.375  1.375 0 0.5  1.5 0 0.5  1.125 0 0.25  1.125 0 0.125  1.375 0.125 0  1.5 0.25 0  1.375 0.25 0  1.5 0.125 0  1.5 0 0  1.5 0.375 0  1.25 0 0  1.25 0.125 0  1.375 0 0  1.125 0 0  1.375 0 0.125  1.5 0 0.25  1.375 0 0.25  1.5 0 0.125  1.5 0 0.375  1.25 0 0.125  1.375 0.625 0  1.25 0.625 0  1.25 0.75 0  1.125 0.625 0  1.5 0.75 0  1.375 0.75 0  1.5 0.625 0  1.375 0.875 0  1.5 0.875 0  1.5 1 0  1.125 0.875 0  1.125 0.75 0  1.25 1 0  1.25 0.875 0  1.125 1 0  1.375 1 0  1.375 0 0.625  1.25 0 0.625  1.25 0 0.75  1.125 0 0.625  1.5 0 0.75  1.375 0 0.75  1.5 0 0.625  1.375 0 0.875  1.5 0 0.875  1.5 0 1  1.125 0 0.875  1.125 0 0.75  1.25 0 1  1.25 0 0.875  1.125 0 1  1.375 0 1  1.625 0.375 0  1.75 0.5 0  1.625 0.5 0  1.75 0.375 0  1.75 0.25 0  1.875 0.375 0  1.875 0.5 0  2 0.5 0  1.625 0.25 0  1.625 0.125 0  1.625 0 0.375  1.75 0 0.5  1.625 0 0.5  1.75 0 0.375  1.75 0 0.25  1.875 0 0.375  1.875 0 0.5  2 0 0.5  1.625 0 0.25  1.625 0 0.125  1.875 0.125 0  2 0.25 0  1.875 0.25 0  2 0.125 0  2 0 0  2 0.375 0  1.75 0 0  1.75 0.125 0  1.875 0 0  1.625 0 0  1.875 0 0.125  2 0 0.25  1.875 0 0.25  2 0 0.125  2 0 0.375  1.75 0 0.125  1.875 0.625 0  1.75 0.625 0  1.75 0.75 0  1.625 0.625 0  2 0.75 0  1.875 0.75 0  2 0.625 0  1.875 0.875 0  2 0.875 0  2 1 0  1.625 0.875 0  1.625 0.75 0  1.75 1 0  1.75 0.875 0  1.625 1 0  1.875 1 0  1.875 0 0.625  1.75 0 0.625  1.75 0 0.75  1.625 0 0.625  2 0 0.75  1.875 0 0.75  2 0 0.625  1.875 0 0.875  2 0 0.875  2 0 1  1.625 0 0.875  1.625 0 0.75  1.75 0 1  1.75 0 0.875  1.625 0 1  1.875 0 1  2.125 0.375 0  2.25 0.5 0  2.125 0.5 0  2.25 0.375 0  2.25 0.25 0  2.375 0.375 0  2.375 0.5 0  2.5 0.5 0  2.125 0.25 0  2.125 0.125 0  2.125 0 0.375  2.25 0 0.5  2.125 0 0.5  2.25 0 0.375  2.25 0 0.25  2.375 0 0.375  2.375 0 0.5  2.5 0 0.5  2.125 0 0.25  2.125 0 0.125  2.375 0.125 0  2.5 0.25 0  2.375 0.25 0  2.5 0.125 0  2.5 0 0  2.5 0.375 0  2.25 0 0  2.25 0.125 0  2.375 0 0  2.125 0 0  2.375 0 0.125  2.5 0 0.25  2.375 0 0.25  2.5 0 0.125  2.5 0 0.375  2.25 0 0.125  2.375 0.625 0  2.25 0.625 0  2.25 0.75 0  2.125 0.625 0  2.5 0.75 0  2.375 0.75 0  2.5 0.625 0  2.375 0.875 0  2.5 0.875 0  2.5 1 0  2.125 0.875 0  2.125 0.75 0  2.25 1 0  2.25 0.875 0  2.125 1 0  2.375 1 0  2.375 0 0.625  2.25 0 0.625  2.25 0 0.75  2.125 0 0.625  2.5 0 0.75  2.375 0 0.75  2.5 0 0.625  2.375 0 0.875  2.5 0 0.875  2.5 0 1  2.125 0 0.875  2.125 0 0.75  2.25 0 1  2.25 0 0.875  2.125 0 1  2.375 0 1  2.625 0.375 0  2.75 0.5 0  2.625 0.5 0  2.75 0.375 0  2.75 0.25 0  2.875 0.375 0  2.875 0.5 0  3 0.5 0  2.625 0.25 0  2.625 0.125 0  2.625 0 0.375  2.75 0 0.5  2.625 0 0.5  2.75 0 0.375  2.75 0 0.25  2.875 0 0.375  2.875 0 0.5  3 0 0.5  2.625 0 0.25  2.625 0 0.125  2.875 0.125 0  3 0.25 0  2.875 0.25 0  3 0.125 0  3 0 0  3 0.375 0  2.75 0 0  2.75 0.125 0  2.875 0 0  2.625 0 0  2.875 0 0.125  3 0 0.25  2.875 0 0.25  3 0 0.125  3 0 0.375  2.75 0 0.125  2.875 0.625 0  2.75 0.625 0  2.75 0.75 0  2.625 0.625 0  3 0.75 0  2.875 0.75 0  3 0.625 0  2.875 0.875 0  3 0.875 0  3 1 0  2.625 0.875 0  2.625 0.75 0  2.75 1 0  2.75 0.875 0  2.625 1 0  2.875 1 0  2.875 0 0.625  2.75 0 0.625  2.75 0 0.75  2.625 0 0.625  3 0 0.75  2.875 0 0.75  3 0 0.625  2.875 0 0.875  3 0 0.875  3 0 1  2.625 0 0.875  2.625 0 0.75  2.75 0 1  2.75 0 0.875  2.625 0 1  2.875 0 1  3.125 0.375 0  3.25 0.5 0  3.125 0.5 0  3.25 0.375 0  3.25 0.25 0  3.375 0.375 0  3.375 0.5 0  3.5 0.5 0  3.125 0.25 0  3.125 0.125 0  3.125 0 0.375  3.25 0 0.5  3.125 0 0.5  3.25 0 0.375  3.25 0 0.25  3.375 0 0.375  3.375 0 0.5  3.5 0 0.5  3.125 0 0.25  3.125 0 0.125  3.375 0.125 0  3.5 0.25 0  3.375 0.25 0  3.5 0.125 0  3.5 0 0  3.5 0.375 0  3.25 0 0  3.25 0.125 0  3.375 0 0  3.125 0 0  3.375 0 0.125  3.5 0 0.25  3.375 0 0.25  3.5 0 0.125  3.5 0 0.375  3.25 0 0.125  3.375 0.625 0  3.25 0.625 0  3.25 0.75 0  3.125 0.625 0  3.5 0.75 0  3.375 0.75 0  3.5 0.625 0  3.375 0.875 0  3.5 0.875 0  3.5 1 0  3.125 0.875 0  3.125 0.75 0  3.25 1 0  3.25 0.875 0  3.125 1 0  3.375 1 0  3.375 0 0.625  3.25 0 0.625  3.25 0 0.75  3.125 0 0.625  3.5 0 0.75  3.375 0 0.75  3.5 0 0.625  3.375 0 0.875  3.5 0 0.875  3.5 0 1  3.125 0 0.875  3.125 0 0.75  3.25 0 1  3.25 0 0.875  3.125 0 1  3.375 0 1  3.625 0.375 0  3.75 0.5 0  3.625 0.5 0  3.75 0.375 0  3.75 0.25 0  3.875 0.375 0  3.875 0.5 0  4 0.5 0  3.625 0.25 0  3.625 0.125 0  3.625 0 0.375  3.75 0 0.5  3.625 0 0.5  3.75 0 0.375  3.75 0 0.25  3.875 0 0.375  3.875 0 0.5  4 0 0.5  3.625 0 0.25  3.625 0 0.125  3.875 0.125 0  4 0.25 0  3.875 0.25 0  4 0.125 0  4 0 0  4 0.375 0  3.75 0 0  3.75 0.125 0  3.875 0 0  3.625 0 0  3.875 0 0.125  4 0 0.25  3.875 0 0.25  4 0 0.125  4 0 0.375  3.75 0 0.125  3.875 0.625 0  3.75 0.625 0  3.75 0.75 0  3.625 0.625 0  4 0.75 0  3.875 0.75 0  4 0.625 0  3.875 0.875 0  4 0.875 0  4 1 0  3.625 0.875 0  3.625 0.75 0  3.75 1 0  3.75 0.875 0  3.625 1 0  3.875 1 0  3.875 0 0.625  3.75 0 0.625  3.75 0 0.75  3.625 0 0.625  4 0 0.75  3.875 0 0.75  4 0 0.625  3.875 0 0.875  4 0 0.875  4 0 1  3.625 0 0.875  3.625 0 0.75  3.75 0 1  3.75 0 0.875  3.625 0 1  3.875 0 1  4.125 0.375 0  4.25 0.5 0  4.125 0.5 0  4.25 0.375 0  4.25 0.25 0  4.375 0.375 0  4.375 0.5 0  4.125 0.25 0  4.125 0.125 0  4.125 0 0.375  4.25 0 0.5  4.125 0 0.5  4.25 0 0.375  4.25 0 0.25  4.375 0 0.375  4.375 0 0.5  4.5 0 0.5  4.125 0 0.25  4.125 0 0.125  4.375 0.125 0  4.5 0.25 0  4.375 0.25 0  4.5 0.125 0  4.5 0 0  4.5 0.375 0  4.25 0 0  4.25 0.125 0  4.375 0 0  4.125 0 0  4.375 0 0.125  4.5 0 0.25  4.375
[...]
<PointData  Vectors="u"> 
<DataArray  type="Float64"  Name="u"  NumberOfComponents="3" format="ascii">-2.3514964133629619e-06 -4.6609720285371576e-08 -9.0866919048185049e-06  -2.3696784247614068e-06 -3.6167864591313502e-08 -9.5712882613187205e-06  -2.3375139257299434e-06 -3.7483368474917527e-08 -9.2317148882203258e-06  -2.3041323608672658e-06 -3.8924615221625548e-08 -8.8981832915440233e-06  -2.3832087817976711e-06 -4.4791561117559687e-08 -9.4243375801816683e-06  -2.3999147126520804e-06 -5.3315115887505020e-08 -9.2688529287463163e-06  -2.4137303100505758e-06 -4.3240446633216757e-08 -9.7660415934934058e-06  -2.4003458271736879e-06 -3.4787211649106431e-08 -9.9108039779193073e-06  -2.4492203702840404e-06 -5.9477051158023370e-08 -9.4581508895310367e-06  -2.4422402828376049e-06 -6.8883605304618518e-08 -8.9857453444195570e-06  -2.4194903247645611e-06 -6.1299618948238883e-08 -9.1188304382686419e-06  -2.4713250473876979e-06 -6.7385979758116043e-08 -9.3290773961995092e-06  -2.4992459841333184e-06 -6.3616495173508586e-08 -9.6720512592355713e-06  -2.4587649000378571e-06 -4.9362920794008431e-08 -9.9542446923771493e-06  -2.4299222246601520e-06 -5.1353367835202787e-08 -9.6107210156521881e-06  -2.1560138629608300e-06 2.8888086999030695e-08 -9.3202082061372749e-06  -2.1302893069005207e-06 2.3356275627086680e-08 -8.9786851994515493e-06  -1.8211114321770741e-06 8.6290029210649867e-08 -8.9708283908645382e-06  -1.8431534210274495e-06 8.5945061959383413e-08 -9.3140266030093438e-06  -1.5326225768760996e-06 1.1864019881026294e-07 -9.3073466916475473e-06  -2.3900682896092008e-06 -2.6287082301543414e-08 -1.0037692015655202e-05  -2.3590182479905517e-06 -2.7238147105347502e-08 -9.6945484895282039e-06  -2.3515347629310082e-06 -1.8263185426263523e-08 -9.7926250914823960e-06  -2.3267769469801589e-06 -2.8309863090799503e-08 -9.3587574259832504e-06  -2.3825986168996535e-06 -1.7567526424748331e-08 -1.0130732502126368e-05  -2.3782365543508819e-06 -8.8207191093291099e-09 -1.0193448861263634e-05  -2.3454865227200935e-06 6.4599018452610883e-19 -9.8730446527713336e-06  -2.3469219649151365e-06 -9.1387839039115921e-09 -9.8495769223750345e-06  -2.3782365543509052e-06 8.8207191106595157e-09 -1.0193448861263708e-05  -2.3469219649151615e-06 9.1387839052031999e-09 -9.8495769223751107e-06  -2.3515347629310594e-06 1.8263185427554934e-08 -9.7926250914825620e-06  -2.3900682896092749e-06 2.6287082302873219e-08 -1.0037692015655475e-05  -2.3696784247615131e-06 3.6167864592603017e-08 -9.5712882613191627e-06  -2.3590182479906288e-06 2.7238147106637907e-08 -9.6945484895285004e-06  -2.4137303100507063e-06 4.3240446634544580e-08 -9.7660415934939851e-06  -2.3832087817978050e-06 4.4791561118848560e-08 -9.4243375801822663e-06  -2.3999147126522426e-06 5.3315115888793351e-08 -9.2688529287470600e-06  -9.1661920516223766e-07 -1.1038409390005693e-07 -9.2986941606588125e-06  -6.1758847399179176e-07 -8.2468592808873211e-08 -9.6417440709262122e-06  -6.1044541179930020e-07 -8.0932107932065504e-08 -9.2967772561295488e-06  -6.0301143440044431e-07 -8.1001754424377516e-08 -8.9529665399258065e-06  -3.0504739231999985e-07 -4.3323468114850779e-08 -9.2943291583779353e-06  -3.0860458206664487e-07 -4.3274482760713397e-08 -9.6409391409477303e-06  -3.0259885372461665e-20 4.3078952679054875e-19 -9.6396380462217788e-06  9.3747042924499201e-07 -1.1247328246898091e-07 -9.9926563773869133e-06  1.2515721460096572e-06 -1.2542918461019921e-07 -9.9968972869164842e-06  1.2380659229272570e-06 -1.2572209489708409e-07 -9.6480160036796774e-06  6.1758847399180182e-07 -8.2468592809598284e-08 -9.6417440709253059e-06  6.2437421389413122e-07 -8.2334873312227745e-08 -9.9908668128359587e-06  9.2725819390977179e-07 -1.1022195446658631e-07 -9.6451324300442900e-06  3.1201953061636793e-07 -4.4028657542080304e-08 -9.9886118128431616e-06  3.0860458206667096e-07 -4.3274482761272624e-08 -9.6409391409468257e-06  7.1233495237480227e-20 5.2314748641845235e-20 -9.6396380462208792e-06  3.1201953061627486e-07 4.4028657542379327e-08 -9.9886118128440815e-06  6.1758847399172717e-07 8.2468592809698512e-08 -9.6417440709261936e-06  3.0860458206658224e-07 4.3274482761564394e-08 -9.6409391409477202e-06  1.5671572401128802e-06 -1.2203867663064249e-07 -1.0000667925864903e-05  2.2039055957097457e-06 -3.3484567239232104e-08 -1.0012569708922355e-05  2.5257355461958245e-06 6.2239179454193711e-08 -1.0020770877698054e-05  2.4992459841334658e-06 6.3616495173817607e-08 -9.6720512592355527e-06  1.8643218107097052e-06 -9.0431795999502183e-08 -9.6582932204444423e-06  1.8844181061460771e-06 -8.9956046276053394e-08 -1.0006834377188927e-05  2.1804572297225109e-06 -2.8075601717412830e-08 -9.6655395833008561e-06  1.5502455334919918e-06 -1.1832473598229892e-07 -9.6534226770695573e-06  2.2039055957097296e-06 3.3484567238540733e-08 -1.0012569708923244e-05  2.5511127859239924e-06 -5.8585837206809457e-08 -1.0368915394525032e-05  2.5257355461958224e-06 -6.2239179454960831e-08 -1.0020770877698945e-05  2.4992459841334798e-06 -6.3616495174578322e-08 -9.6720512592364234e-06  1.8643218107096866e-06 9.0431795998937304e-08 -9.6582932204453148e-06  1.8844181061460458e-06 8.9956046275478616e-08 -1.0006834377189821e-05  1.9036794177584770e-06 9.4318429310291229e-08 -1.0356264769509249e-05  2.1804572297225075e-06 2.8075601716736875e-08 -9.6655395833017252e-06  1.5671572401128359e-06 1.2203867663020730e-07 -1.0000667925865796e-05  1.5502455334919579e-06 1.1832473598187628e-07 -9.6534226770704331e-06  1.2380659229272092e-06 1.2572209489682087e-07 -9.6480160036805549e-06  2.5046149509126254e-06 5.4971839431343113e-08 -1.0149376247865946e-05  2.4707063102217686e-06 4.0020574270647992e-08 -1.0456485588140789e-05  2.4848761689957318e-06 3.1014484675369191e-08 -1.0951292019199301e-05  2.4579187483168501e-06 3.2210796171689758e-08 -1.0600942919945469e-05  2.4298481250939215e-06 3.3531610343076997e-08 -1.0256082726849337e-05  2.4587649000379816e-06 4.9362920794314905e-08 -9.9542446923772459e-06  2.4861765036031641e-06 4.7490648815999280e-08 -1.0301499801828103e-05  2.4427878198897883e-06 4.1497241445981930e-08 -1.0109374081709280e-05  2.4774870555494869e-06 5.6690090887001873e-08 -9.8046134052570198e-06  2.4480997265293884e-06 2.4354329569581525e-08 -1.0727634408540198e-05  2.4367961023135713e-06 8.1763162154448515e-09 -1.0883147778465584e-05  2.4627965494908357e-06 -3.9556127204620735e-19 -1.1252070103772774e-05  2.4353115973653476e-06 -3.9156044747210160e-19 -1.0900333868690296e-05  2.4067132665286928e-06 -3.8696167668107565e-19 -1.0557396949359663e-05  2.4124971170580834e-06 1.6944537926531322e-08 -1.0477084656483050e-05  2.4409634776235276e-06 1.6278891754643621e-08 -1.0820501192481139e-05  2.4683165105905057e-06 1.5685612847451541e-08 -1.1171891182354053e-05  2.4080860183671106e-06 8.4794276992877314e-09 -1.0533934175708490e-05  2.4196536297984269e-06 2.5260610080504657e-08 -1.0379123924480220e-05  2.4367961023135675e-06 -8.1763162162282014e-09 -1.0883147778465733e-05  2.4480997265293786e-06 -2.4354329570361738e-08 -1.0727634408540706e-05  2.4848761689957148e-06 -3.1014484676155139e-08 -1.0951292019199973e-05  2.4579187483168395e-06 -3.2210796172468413e-08 -1.0600942919946154e-05  2.4298481250939160e-06 -3.3531610343847698e-08 -1.0256082726850045e-05  2.4124971170580800e-06 -1.6944537927304491e-08 -1.0477084656483388e-05  2.4409634776235196e-06 -1.6278891755425270e-08 -1.0820501192481466e-05  2.4683165105904922e-06 -1.5685612848240950e-08 -1.1171891182354377e-05  2.4196536297984223e-06 -2.5260610081276525e-08 -1.0379123924480752e-05  2.4080860183671085e-06 -8.4794277000612461e-09 -1.0533934175708656e-05  2.4707063102217589e-06 -4.0020574271425350e-08 -1.0456485588141609e-05  2.5046149509126182e-06 -5.4971839432115462e-08 -1.0149376247866876e-05  2.5303443935487670e-06 -5.2287764459115894e-08 -1.0500929099085857e-05  2.5124750119453033e-06 -4.5588733985151089e-08 -1.0650133404190355e-05  2.4587649000379825e-06 -4.9362920795081264e-08 -9.9542446923781623e-06  2.4861765036031557e-06 -4.7490648816773792e-08 -1.0301499801829003e-05  2.4774870555494925e-06 -5.6690090887765103e-08 -9.8046134052579363e-06  2.4427878198897858e-06 -4.1497241446750248e-08 -1.0109374081710116e-05  -3.1925933870313041e-07 -7.6849757126861099e-08 -3.0649147343964433e-07  -2.5687766339125055e-07 -7.6331173789149365e-08 -1.9393742728804770e-07  -3.6301914484560167e-07 -1.0021952388031721e-07 -3.0681956626220461e-07  -4.6175571480275768e-07 -1.1873652741385195e-07 -4.2469382728565978e-07  -2.1594802700048073e-07 -5.4495662692047377e-08 -1.8018378976563353e-07  -1.9225428334773129e-07 -3.6457485337324670e-08 -1.6278357439443691e-07  -1.0617325552107342e-07 -2.2015344944222175e-08 -6.2990955695303492e-08  -1.3954186535926908e-07 -4.3594993754691429e-08 -9.2217359053736210e-08  0.0000000000000000e+00 0.0000000000000000e+00 0.0000000000000000e+00  -3.8621236839309341e-07 -7.4170426788266667e-08 -4.5267687633116722e-07  -2.9088906545423267e-07 -5.8303822423565899e-08 -3.0243432090493839e-07  -4.1826595437499015e-07 -9.5440271399699618e-08 -4.4140499511438119e-07  -2.7134940331904328e-07 -4.2000287490848328e-08 -2.9982154937610905e-07  -3.6388151214909038e-07 -5.7185102892778588e-08 -4.6585593511434690e-07  -3.4738695497447959e-07 -4.1751639189719091e-08 -4.7786306640423670e-07  -2.8994450483610193e-07 -8.1897988188440312e-08 -2.8235118788045560e-07  -1.9669711168458443e-07 -5.8954114249914990e-08 -1.7621043103843453e-07  -1.5373619820396344e-07 -3.9089411621537810e-08 -1.5783408147593300e-07  -9.6992354198300021e-08 -2.7232865852357820e-08 -7.1540866364115782e-08  -3.0871275847405222e-07 -6.6498241802988986e-08 -3.8164837392961914e-07  -2.3286879714338296e-07 -5.6539734140390295e-08 -2.6750660855642782e-07  -3.7936170697630359e-07 -9.2940556179053516e-08 -4.0389222318640116e-07  -1.8456278974066455e-07 -3.6323364079474088e-08 -2.5088840862263882e-07  -2.4761645849849218e-07 -4.3426165606395728e-08 -3.6901951046091846e-07  -1.9206463246231361e-07 -2.6167278929824176e-08 -3.5431088991331677e-07  -8.8292285690921091e-08 -1.0254976443285417e-08 -4.2662553557858549e-08  -1.7097691011589438e-07 -1.8245572150496615e-08 -1.5137442247708965e-07  -1.8031032238502688e-07 -2.7017738713862348e-08 -1.5767748140965448e-07  -8.5397152858532084e-08 -8.0125747402839246e-09 -4.7214803077580267e-08  0.0000000000000000e+00 0.0000000000000000e+00 0.0000000000000000e+00  -2.5966739547087337e-07 -3.1104665132144421e-08 -3.0460265629818648e-07  0.0000000000000000e+00 0.0000000000000000e+00 0.0000000000000000e+00  -9.6428676837174277e-08 -1.6706137596001576e-08 -5.5494259790614465e-08  0.0000000000000000e+00 0.0000000000000000e+00 0.0000000000000000e+00  0.0000000000000000e+00 0.0000000000000000e+00 0.0000000000000000e+00  -5.9880970751676270e-08 -7.6979223916682073e-09 -6.2986841575199559e-08  -9.4114582064990732e-08 -1.3160379067868273e-08 -1.4299318678926287e-07  -1.2268647385207222e-07 -2.3728533120002066e-08 -1.5222841575977646e-07  -4.7034711699523550e-08 -4.5232467924323796e-09 -6.4087093786115095e-08  0.0000000000000000e+00 0.0000000000000000e+00 0.0000000000000000e+00  -1.4353099912801181e-07 -2.1625147096025783e-08 -2.4459401465830823e-07  0.0000000000000000e+00 0.0000000000000000e+00 0.0000000000000000e+00  -7.7295889112801641e-08 -1.6099700566602995e-08 -7.0477507179196427e-08  0.0000000000000000e+00 0.0000000000000000e+00 0.0000000000000000e+00  0.0000000000000000e+00 0.0000000000000000e+00 0.0000000000000000e+00  0.0000000000000000e+00 0.0000000000000000e+00 0.0000000000000000e+00  0.0000000000000000e+00 0.0000000000000000e+00 0.0000000000000000e+00  0.0000000000000000e+00 0.0000000000000000e+00 0.0000000000000000e+00  0.0000000000000000e+00 0.0000000000000000e+00 0.0000000000000000e+00  0.0000000000000000e+00 0.0000000000000000e+00 0.0000000000000000e+00  0.0000000000000000e+00 0.0000000000000000e+00 0.0000000000000000e+00  0.0000000000000000e+00 0.0000000000000000e+00 0.0000000000000000e+00  0.0000000000000000e+00 0.0000000000000000e+00 0.0000000000000000e+00  0.0000000000000000e+00 0.0000000000000000e+00 0.0000000000000000e+00  0.0000000000000000e+00 0.0000000000000000e+00 0.0000000000000000e+00  0.0000000000000000e+00 0.0000000000000000e+00 0.0000000000000000e+00  0.0000000000000000e+00 0.0000000000000000e+00 0.0000000000000000e+00  0.0000000000000000e+00 0.0000000000000000e+00 0.0000000000000000e+00  0.0000000000000000e+00 0.0000000000000000e+00 0.0000000000000000e+00  0.0000000000000000e+00 0.0000000000000000e+00 0.0000000000000000e+00  0.0000000000000000e+00 0.0000000000000000e+00 0.0000000000000000e+00  -4.5422500882811537e-07 -6.8231624448232641e-08 -6.4121031984208019e-07  -4.7962275013265296e-07 -8.7652526258319848e-08 -6.1352188795349770e-07  -5.7004681442504075e-07 -9.6991708758916797e-08 -7.8069874213143546e-07  -5.1298400462964840e-07 -1.0862702193195314e-07 -5.8371713378175891e-07  -5.2302329631430537e-07 -5.9346748675036569e-08 -8.6616068453951442e-07  -5.4348752368177483e-07 -7.7611589847905072e-08 -8.2558664832147001e-07  -4.3606502946233089e-07 -5.1997588912851465e-08 -6.6807444679282120e-07  -6.3046438976951062e-07 -8.4017481279195600e-08 -1.0155589565949731e-06  -6.0924260300779608e-07 -6.5494886687239178e-08 -1.0700650743402375e-06  -6.9352733713313046e-07 -6.9556407605789108e-08 -1.2788962244956047e-06  -3.0859094952905168e-07 -4.4802973921772622e-08 -4.9243621450960108e-07  -3.8257442509002248e-07 -6.9380801731056174e-08 -5.1163088323912683e-07  -4.5350486249889170e-07 -6.7510318746763228e-08 -6.4617090403194994e-07  -4.6437451186992933e-07 -9.9119079655986980e-08 -5.2901882891240932e-07  -2.8834913717391366e-07 -2.3379297931136912e-08 -6.1571673242164507e-07  -3.6816332357380380e-07 -4.2171015970099161e-08 -6.3190224566235131e-07  -2.4094369225856987e-07 -2.6766945269307839e-08 -4.8218636040143759e-07  -4.2566294042160672e-07 -3.5788634238030935e-08 -7.7621947313805588e-07  -3.3460260221848480e-07 -1.7976421763461623e-08 -7.6505238776972749e-07  -3.7934970466996209e-07 -9.9142639765100642e-09 -9.1935247503251592e-07  -6.9190679430162332e-07 -1.2492650654377453e-07 -8.9268402045125161e-07  -7.4328457815279649e-07 -1.0861940148535785e-07 -1.1357710450433195e-06  -6.5789839512891374e-07 -1.0401751060529932e-07 -9.5543172888066894e-07  -7.7692673735977124e-07 -1.2900360430254672e-07 -1.0604238761148577e-06  -8.1668525193916358e-07 -1.4982853127564541e-07 -9.8871635532932926e-07  -7.1555480944426608e-07 -8.8761649176868521e-08 -1.2105791562978823e-06  -6.4546767516201893e-07 -1.4013997233248911e-07 -6.8805056787683598e-07  -6.0389408455506162e-07 -1.1807791064356506e-07 -7.3484691636189777e-07  -7.3227995982403187e-07 -1.4624350586322284e-07 -8.3536625260849095e-07  -5.5531831579462125e-07 -1.3096418901561257e-07 -5.5314410923451618e-07  -6.2389459894029791e-07 -9.8709680155871326e-08 -8.1213515003479733e-07  -5.8757640737353842e-07 -5.5719844914782952e-08 -9.4911575239512013e-07  -5.2169648986659791e-07 -6.3187310643547769e-08 -7.9515810021200152e-07  -6.9916265830522163e-07 -9.6505288384104814e-08 -9.6993543013237834e-07  -4.8108169860130237e-07 -2.8571489987911168e-08 -9.3518423721427748e-07  -5.4559411361202508e-07 -1.0068651115800831e-07 -6.6809158918690490e-07  -2.5057452322636399e-07 -2.1038587369967929e-08 -3.0715939394844230e-07  -3.2924929818298824e-07 -1.8746561998019569e-08 -5.0116894999803963e-07  -3.3701975343732061e-07 -2.9893223656831345e-08 -4.9183067420620942e-07  -2.4594580875581755e-07 -1.3607923888178475e-08 -3.1437584773318760e-07  -1.6227480743096018e-07 -7.8160285513024375e-09 -1.5306628197899969e-07  -2.4229712601243587e-07 -6.4222318665271098e-09 -3.1544378289966422e-07  -3.2580354304258422e-07 -9.2756126407636727e-09 -5.0938476726233506e-07  -3.2389456366311817e-07 2.4360526354314050e-20 -5.1054991488190205e-07  -1.6638508809782912e-07 -1.3019141424203347e-08 -1.5544253047413584e-07  -8.2015074962595691e-08 -4.9375145360591273e-09 -4.0085283451653372e-08  -5.9317967642783069e-07 -4.7754773505402527e-08 -1.1165896297134637e-06  -5.0859707348478116e-07 -4.3266949503968298e-08 -9.0054616207218918e-07  -4.9823289532062860e-07 -2.7910628791540740e-08 -9.2708855813286726e-07  -4.2249120379221715e-07 -3.6849849612825522e-08 -6.9073217552845988e-07  -6.6539156786595791e-07 -3.3718388126725978e-08 -1.3791971977774907e-06  -5.8255180556816039e-07 -3.1380429505667104e-08 -1.1506502399162335e-06  -6.7709972709938408e-07 -5.1388353249147019e-08 -1.3351369420121010e-06  -5.7586832924111381e-07 -1.5430526290831997e-08 -1.1731667412272824e-06  -6.5883407800696738e-07 -1.6769296020385156e-08 -1.4046371026772117e-06  -6.5635114141017558e-07 6.8489693528618497e-20 -1.4150412380152613e-06  -4.0873366916238093e-07 -1.1608095504419273e-08 -7.2020506056960672e-07  -4.1425146213148773e-07 -2.3983415150301791e-08 -7.0910606353716171e-07  -4.9054805236890861e-07 4.4480262179371322e-20 -9.4920398169608394e-07  -4.9287085592257147e-07 -1.3836404350805636e-08 -9.4320401339045231e-07  -4.0763377014684224e-07 3.4043810819457820e-20 -7.2443829422186736e-07  -5.7410925116724510e-07 5.6109138803320969e-20 -1.1795753271460741e-06  -1.0485329845861053e-07 -1.1849724965070077e-08 -2.3515844667424148e-07  -9.2767000238489630e-08 -7.2457245296301917e-09 -3.4029711340316905e-07  -1.4141499468797557e-07 -1.4651585504254090e-08 -3.4873979102094715e-07  -6.9201583838911658e-08 -6.0082236849501387e-09 -2.3371580694279938e-07  -4.5400547425079648e-08 -3.3442032958536851e-09 -1.3661070457893211e-07  -3.4178189257223446e-08 -2.3781037238809944e-09 -2.2862193442516882e-07  -4.6134427839478163e-08 -2.9495506128054100e-09 -3.3976773141084010e-07  6.9572165954341642e-21 3.0225163471596607e-20 -3.3602689831075944e-07  -6.9541636929299889e-08 -7.1798206044090872e-09 -1.4189479164046429e-07  -3.4068029538187758e-08 -1.8954400693716599e-09 -5.9532565040643431e-08  -2.4755923093027965e-07 -6.4848493477293493e-09 -7.5192598418338398e-07  -2.1291984410759398e-07 -1.1686472701361382e-08 -6.0801481125573363e-07  -1.4030223801297352e-07 -4.6485404723416635e-09 -5.9810974997457561e-07  -1.7722607467052108e-07 -1.4303558332948778e-08 -4.6971826196874157e-07  -1.8597294917388233e-07 3.4231004368921002e-09 -9.0123875719668553e-07  -1.6348431811945459e-07 -1.3408570681286300e-09 -7.4698767830259817e-07  -2.8124380063293559e-07 -5.8085740357280492e-10 -9.1125627684216480e-07  -8.1258602780771584e-08 4.2479603666005532e-10 -7.3993678470953803e-07  -9.2527958172873574e-08 2.6199958013301084e-09 -8.9921451665592923e-07  1.5425753664983047e-20 8.8785705469051318e-20 -8.9520406989953466e-07  -5.7903862211910533e-08 -2.5801176797574268e-09 -4.5921698135051580e-07  -1.1681562348450003e-07 -6.9355258223261708e-09 -4.6579471757669518e-07  1.1005341948851339e-20 5.7909276770229151e-20 -5.9242730559120918e-07  -6.9736656090015668e-08 -1.5167673336968433e-09 -5.9647904512302024e-07  8.9537955536720032e-21 4.3514176814410683e-20 -4.6061888924155325e-07  1.3190757600452202e-20 7.2976639435421946e-20 -7.4103017871931189e-07  0.0000000000000000e+00 0.0000000000000000e+00 0.0000000000000000e+00  0.0000000000000000e+00 0.0000000000000000e+00 0.0000000000000000e+00  0.0000000000000000e+00 0.0000000000000000e+00 0.0000000000000000e+00  0.0000000000000000e+00 0.0000000000000000e+00 0.0000000000000000e+00  0.0000000000000000e+00 0.0000000000000000e+00 0.0000000000000000e+00  0.0000000000000000e+00 0.0000000000000000e+00 0.0000000000000000e+00  0.0000000000000000e+00 0.0000000000000000e+00 0.0000000000000000e+00  0.0000000000000000e+00 0.0000000000000000e+00 0.0000000000000000e+00  0.0000000000000000e+00 0.0000000000000000e+00 0.0000000000000000e+00  0.0000000000000000e+00 0.0000000000000000e+00 0.0000000000000000e+00  -1.1124260253345999e-08 -2.9948011933734944e-10 -5.8113789964751564e-08  3.3159733158468487e-21 8.9473229157311709e-21 -1.3477121929557907e-07  -2.2664601743626569e-08 -1.3796479458098617e-09 -1.3782017337117504e-07  1.6404966507612668e-21 2.7267699697505645e-21 -6.0677979423762006e-08  0.0000000000000000e+00 0.0000000000000000e+00 0.0000000000000000